   5  120
1 1
     5.963714133838647    -0.000000000000000     0.000000000000000
     0.000000000000000     5.963714133838644     0.000000000000000
    -0.000000000000000    -0.000000000000000     5.991086950148248
1 2
    -1.005742810230148    -0.000000000000000     0.000000000000000
    -0.000000000000000     0.285934902948246     0.000000000000000
    -0.000000000000000     0.000000000000000     0.387177352251634
1 3
    -0.082304773107689     0.000000000000000     0.000000000000000
    -0.000000000000000    -0.082304773107689     0.000000000000000
     0.000000000000000    -0.000000000000000     0.091766840470254
1 4
    -1.005742810230148    -0.000000000000000     0.000000000000000
    -0.000000000000000     0.285934902948246     0.000000000000000
    -0.000000000000000    -0.000000000000000     0.387177352251634
1 5
     0.285934902948246     0.000000000000000     0.000000000000000
     0.000000000000000    -1.005742810230147     0.000000000000000
    -0.000000000000000     0.000000000000000     0.387177352251634
1 6
    -0.269857505861103    -0.342257013375071    -0.000000000000000
    -0.342257013375071    -0.269857505861103     0.000000000000000
    -0.000000000000000    -0.000000000000000     0.197357198946453
1 7
     0.285934902948246     0.000000000000000     0.000000000000000
     0.000000000000000    -1.005742810230147     0.000000000000000
    -0.000000000000000    -0.000000000000000     0.387177352251634
1 8
    -0.269857505861103     0.342257013375072     0.000000000000000
     0.342257013375071    -0.269857505861102     0.000000000000000
     0.000000000000000     0.000000000000000     0.197357198946452
1 9
     0.361895428118972    -0.000000000000000     0.000000000000000
    -0.000000000000000     0.361895428118971    -0.000000000000000
     0.000000000000000     0.000000000000000    -1.062442551637630
1 10
    -0.146007446786960    -0.000000000000000    -0.144659883565245
     0.000000000000000     0.063650398150268    -0.000000000000000
    -0.146040283691567    -0.000000000000000    -0.182406836475933
1 11
    -0.036336828494420     0.000000000000000    -0.000000000000000
    -0.000000000000000    -0.036336828494420     0.000000000000000
     0.000000000000000    -0.000000000000000    -0.047281601115838
1 12
    -0.146007446786960    -0.000000000000000     0.144659883565245
     0.000000000000000     0.063650398150268     0.000000000000000
     0.146040283691567     0.000000000000000    -0.182406836475933
1 13
     0.063650398150268     0.000000000000000     0.000000000000000
     0.000000000000000    -0.146007446786960    -0.144659883565245
    -0.000000000000000    -0.146040283691567    -0.182406836475933
1 14
    -0.060541193709465    -0.115834328002303     0.000000000000000
    -0.115834328002303    -0.060541193709465    -0.000000000000000
    -0.000000000000000     0.000000000000000    -0.098495986083310
1 15
     0.063650398150268     0.000000000000000    -0.000000000000000
     0.000000000000000    -0.146007446786960     0.144659883565245
     0.000000000000000     0.146040283691567    -0.182406836475933
1 16
    -0.060541193709465     0.115834328002303    -0.000000000000000
     0.115834328002303    -0.060541193709465     0.000000000000000
    -0.000000000000000     0.000000000000000    -0.098495986083310
1 17
     0.361895428118972    -0.000000000000000    -0.000000000000000
     0.000000000000000     0.361895428118971     0.000000000000000
    -0.000000000000000    -0.000000000000000    -1.062442551637630
1 18
    -0.146007446786960    -0.000000000000000     0.144659883565245
    -0.000000000000000     0.063650398150268     0.000000000000000
     0.146040283691567     0.000000000000000    -0.182406836475933
1 19
    -0.036336828494420     0.000000000000000     0.000000000000000
    -0.000000000000000    -0.036336828494420    -0.000000000000000
    -0.000000000000000    -0.000000000000000    -0.047281601115838
1 20
    -0.146007446786960    -0.000000000000000    -0.144659883565245
    -0.000000000000000     0.063650398150268     0.000000000000000
    -0.146040283691567    -0.000000000000000    -0.182406836475933
1 21
     0.063650398150268     0.000000000000000    -0.000000000000000
    -0.000000000000000    -0.146007446786960     0.144659883565245
     0.000000000000000     0.146040283691567    -0.182406836475933
1 22
    -0.060541193709465    -0.115834328002303     0.000000000000000
    -0.115834328002303    -0.060541193709465     0.000000000000000
     0.000000000000000     0.000000000000000    -0.098495986083310
1 23
     0.063650398150268     0.000000000000000     0.000000000000000
    -0.000000000000000    -0.146007446786960    -0.144659883565245
    -0.000000000000000    -0.146040283691567    -0.182406836475933
1 24
    -0.060541193709465     0.115834328002303     0.000000000000000
     0.115834328002303    -0.060541193709465    -0.000000000000000
    -0.000000000000000    -0.000000000000000    -0.098495986083310
1 25
    -0.208961175267368    -1.426817954527314    -1.344285069362041
    -1.426817954527313    -0.208961175267368    -1.344285069362041
    -1.348944673139344    -1.348944673139344    -0.189505797395135
1 26
    -0.237974101122567    -0.212355914982741    -0.036110536560278
    -0.212355914982741    -0.237974101122567     0.036110536560278
    -0.115288232908319     0.115288232908319     0.085490527929345
1 27
    -0.237974101122567     0.212355914982741     0.036110536560278
     0.212355914982741    -0.237974101122567     0.036110536560278
     0.115288232908319     0.115288232908319     0.085490527929345
1 28
    -0.208961175267368     1.426817954527314     1.344285069362041
     1.426817954527313    -0.208961175267368    -1.344285069362041
     1.348944673139344    -1.348944673139344    -0.189505797395135
1 29
    -0.237974101122567    -0.212355914982741     0.036110536560278
    -0.212355914982741    -0.237974101122567    -0.036110536560278
     0.115288232908319    -0.115288232908319     0.085490527929345
1 30
    -0.208961175267368    -1.426817954527314     1.344285069362041
    -1.426817954527313    -0.208961175267368     1.344285069362041
     1.348944673139344     1.348944673139344    -0.189505797395135
1 31
    -0.208961175267368     1.426817954527314    -1.344285069362041
     1.426817954527313    -0.208961175267368     1.344285069362041
    -1.348944673139344     1.348944673139344    -0.189505797395135
1 32
    -0.237974101122567     0.212355914982741    -0.036110536560278
     0.212355914982741    -0.237974101122567    -0.036110536560278
    -0.115288232908319    -0.115288232908319     0.085490527929345
1 33
     0.067168190364941    -0.064831474421421     0.000000000000000
    -0.064831474421421     0.067168190364941    -0.000000000000000
     0.000000000000000    -0.000000000000000    -0.514090395734210
1 34
    -0.056262951856137    -0.055327787933822    -0.000000000000000
    -0.055327787933822    -0.056262951856137    -0.000000000000000
     0.000000000000000    -0.000000000000000    -0.177677152363435
1 35
    -0.056262951856137     0.055327787933822    -0.000000000000000
     0.055327787933822    -0.056262951856137    -0.000000000000000
     0.000000000000000    -0.000000000000000    -0.177677152363436
1 36
     0.067168190364941     0.064831474421421    -0.000000000000000
     0.064831474421421     0.067168190364941    -0.000000000000000
     0.000000000000000    -0.000000000000000    -0.514090395734210
1 37
    -0.056262951856137    -0.055327787933822    -0.000000000000000
    -0.055327787933822    -0.056262951856137    -0.000000000000000
     0.000000000000000    -0.000000000000000    -0.177677152363435
1 38
     0.067168190364941    -0.064831474421421    -0.000000000000000
    -0.064831474421421     0.067168190364941    -0.000000000000000
    -0.000000000000000    -0.000000000000000    -0.514090395734210
1 39
     0.067168190364941     0.064831474421421    -0.000000000000000
     0.064831474421421     0.067168190364941    -0.000000000000000
    -0.000000000000000     0.000000000000000    -0.514090395734210
1 40
    -0.056262951856137     0.055327787933822    -0.000000000000000
     0.055327787933822    -0.056262951856137    -0.000000000000000
     0.000000000000000    -0.000000000000000    -0.177677152363436
1 41
    -0.208961175267368    -1.426817954527314     1.344285069362041
    -1.426817954527313    -0.208961175267368     1.344285069362041
     1.348944673139344     1.348944673139344    -0.189505797395135
1 42
    -0.237974101122567    -0.212355914982741     0.036110536560278
    -0.212355914982741    -0.237974101122567    -0.036110536560278
     0.115288232908319    -0.115288232908319     0.085490527929345
1 43
    -0.237974101122567     0.212355914982741    -0.036110536560278
     0.212355914982741    -0.237974101122567    -0.036110536560278
    -0.115288232908319    -0.115288232908319     0.085490527929345
1 44
    -0.208961175267368     1.426817954527314    -1.344285069362041
     1.426817954527313    -0.208961175267368     1.344285069362041
    -1.348944673139344     1.348944673139344    -0.189505797395135
1 45
    -0.237974101122567    -0.212355914982741    -0.036110536560278
    -0.212355914982741    -0.237974101122567     0.036110536560278
    -0.115288232908319     0.115288232908319     0.085490527929345
1 46
    -0.208961175267368    -1.426817954527314    -1.344285069362041
    -1.426817954527313    -0.208961175267368    -1.344285069362041
    -1.348944673139344    -1.348944673139344    -0.189505797395135
1 47
    -0.208961175267368     1.426817954527314     1.344285069362041
     1.426817954527313    -0.208961175267368    -1.344285069362041
     1.348944673139344    -1.348944673139344    -0.189505797395135
1 48
    -0.237974101122567     0.212355914982741     0.036110536560278
     0.212355914982741    -0.237974101122567     0.036110536560278
     0.115288232908319     0.115288232908319     0.085490527929345
1 49
    -0.940276979860261    -0.000000000000000    -0.000000000000000
    -0.000000000000000     0.036057919328080     0.506334965846145
     0.000000000000000     0.507702841399131     0.032928837523847
1 50
     0.267194808570197     0.137985191763194     0.087269799611476
     0.364316400584947    -0.008324251961529     0.073515822558100
     0.256115504837821     0.070416699438268    -0.064013577856889
1 51
     0.086249331802430    -0.000000000000000     0.000000000000000
     0.000000000000000     0.099956181010056    -0.037966344377025
    -0.000000000000000    -0.025219156856364    -0.040242435278170
1 52
     0.267194808570197    -0.137985191763194    -0.087269799611476
    -0.364316400584947    -0.008324251961529     0.073515822558100
    -0.256115504837821     0.070416699438268    -0.064013577856889
1 53
     0.086249331802430    -0.000000000000000    -0.000000000000000
     0.000000000000000     0.099956181010056     0.037966344377025
     0.000000000000000     0.025219156856364    -0.040242435278170
1 54
     0.267194808570197     0.137985191763194    -0.087269799611476
     0.364316400584947    -0.008324251961529    -0.073515822558100
    -0.256115504837821    -0.070416699438268    -0.064013577856889
1 55
    -0.940276979860261    -0.000000000000000     0.000000000000000
    -0.000000000000000     0.036057919328080    -0.506334965846145
    -0.000000000000000    -0.507702841399131     0.032928837523847
1 56
     0.267194808570197    -0.137985191763194     0.087269799611476
    -0.364316400584947    -0.008324251961529    -0.073515822558100
     0.256115504837821    -0.070416699438268    -0.064013577856889
1 57
    -0.134803768345705     0.000000000000000     0.000000000000000
    -0.000000000000000    -0.052210947114213     0.000000000000000
     0.000000000000000    -0.000000000000000     0.204150972158174
1 58
     0.032309153430423     0.041392568913520    -0.000000000000000
     0.086169197062683    -0.003325509362905    -0.000000000000000
     0.000000000000000    -0.000000000000000     0.110620118714212
1 59
     0.026759170326821    -0.000000000000000     0.000000000000000
     0.000000000000000     0.043877641296658     0.000000000000000
    -0.000000000000000    -0.000000000000000     0.079707076672080
1 60
     0.032309153430423    -0.041392568913521     0.000000000000000
    -0.086169197062683    -0.003325509362905    -0.000000000000000
     0.000000000000000     0.000000000000000     0.110620118714212
1 61
     0.026759170326821    -0.000000000000000     0.000000000000000
     0.000000000000000     0.043877641296658     0.000000000000000
    -0.000000000000000    -0.000000000000000     0.079707076672080
1 62
     0.032309153430423     0.041392568913521    -0.000000000000000
     0.086169197062683    -0.003325509362905    -0.000000000000000
     0.000000000000000    -0.000000000000000     0.110620118714212
1 63
    -0.134803768345705     0.000000000000000     0.000000000000000
    -0.000000000000000    -0.052210947114213     0.000000000000000
     0.000000000000000    -0.000000000000000     0.204150972158174
1 64
     0.032309153430423    -0.041392568913520     0.000000000000000
    -0.086169197062683    -0.003325509362905    -0.000000000000000
     0.000000000000000     0.000000000000000     0.110620118714212
1 65
    -0.940276979860261    -0.000000000000000     0.000000000000000
    -0.000000000000000     0.036057919328080    -0.506334965846145
    -0.000000000000000    -0.507702841399131     0.032928837523847
1 66
     0.267194808570197     0.137985191763194    -0.087269799611476
     0.364316400584947    -0.008324251961529    -0.073515822558100
    -0.256115504837821    -0.070416699438268    -0.064013577856889
1 67
     0.086249331802430    -0.000000000000000    -0.000000000000000
     0.000000000000000     0.099956181010056     0.037966344377025
     0.000000000000000     0.025219156856364    -0.040242435278170
1 68
     0.267194808570197    -0.137985191763194     0.087269799611476
    -0.364316400584947    -0.008324251961529    -0.073515822558100
     0.256115504837821    -0.070416699438268    -0.064013577856889
1 69
     0.086249331802430    -0.000000000000000     0.000000000000000
     0.000000000000000     0.099956181010056    -0.037966344377025
    -0.000000000000000    -0.025219156856364    -0.040242435278170
1 70
     0.267194808570197     0.137985191763194     0.087269799611476
     0.364316400584947    -0.008324251961529     0.073515822558100
     0.256115504837821     0.070416699438268    -0.064013577856889
1 71
    -0.940276979860261    -0.000000000000000    -0.000000000000000
    -0.000000000000000     0.036057919328080     0.506334965846145
     0.000000000000000     0.507702841399131     0.032928837523847
1 72
     0.267194808570197    -0.137985191763194    -0.087269799611476
    -0.364316400584947    -0.008324251961529     0.073515822558100
    -0.256115504837821     0.070416699438268    -0.064013577856889
1 73
     0.036057919328080     0.000000000000000     0.506334965846145
    -0.000000000000000    -0.940276979860260    -0.000000000000000
     0.507702841399131     0.000000000000000     0.032928837523847
1 74
     0.099956181010056    -0.000000000000000     0.037966344377025
    -0.000000000000000     0.086249331802430     0.000000000000000
     0.025219156856364     0.000000000000000    -0.040242435278170
1 75
     0.099956181010056    -0.000000000000000    -0.037966344377025
     0.000000000000000     0.086249331802430    -0.000000000000000
    -0.025219156856364    -0.000000000000000    -0.040242435278170
1 76
     0.036057919328080     0.000000000000000    -0.506334965846145
    -0.000000000000000    -0.940276979860260    -0.000000000000000
    -0.507702841399131    -0.000000000000000     0.032928837523847
1 77
    -0.008324251961529     0.364316400584947     0.073515822558100
     0.137985191763194     0.267194808570197     0.087269799611476
     0.070416699438268     0.256115504837821    -0.064013577856889
1 78
    -0.008324251961529     0.364316400584947    -0.073515822558100
     0.137985191763194     0.267194808570197    -0.087269799611476
    -0.070416699438268    -0.256115504837821    -0.064013577856889
1 79
    -0.008324251961529    -0.364316400584947     0.073515822558100
    -0.137985191763194     0.267194808570197    -0.087269799611476
     0.070416699438268    -0.256115504837821    -0.064013577856889
1 80
    -0.008324251961529    -0.364316400584947    -0.073515822558100
    -0.137985191763194     0.267194808570197     0.087269799611476
    -0.070416699438268     0.256115504837821    -0.064013577856889
1 81
    -0.052210947114213     0.000000000000000     0.000000000000000
    -0.000000000000000    -0.134803768345705     0.000000000000000
    -0.000000000000000    -0.000000000000000     0.204150972158174
1 82
     0.043877641296658    -0.000000000000000     0.000000000000000
     0.000000000000000     0.026759170326821     0.000000000000000
    -0.000000000000000     0.000000000000000     0.079707076672080
1 83
     0.043877641296658    -0.000000000000000     0.000000000000000
     0.000000000000000     0.026759170326821     0.000000000000000
    -0.000000000000000     0.000000000000000     0.079707076672080
1 84
    -0.052210947114213     0.000000000000000     0.000000000000000
    -0.000000000000000    -0.134803768345705     0.000000000000000
    -0.000000000000000    -0.000000000000000     0.204150972158174
1 85
    -0.003325509362905     0.086169197062683     0.000000000000000
     0.041392568913520     0.032309153430423     0.000000000000000
     0.000000000000000     0.000000000000000     0.110620118714212
1 86
    -0.003325509362905     0.086169197062683     0.000000000000000
     0.041392568913520     0.032309153430423     0.000000000000000
     0.000000000000000    -0.000000000000000     0.110620118714212
1 87
    -0.003325509362905    -0.086169197062683     0.000000000000000
    -0.041392568913520     0.032309153430423     0.000000000000000
    -0.000000000000000     0.000000000000000     0.110620118714212
1 88
    -0.003325509362905    -0.086169197062683     0.000000000000000
    -0.041392568913520     0.032309153430423     0.000000000000000
    -0.000000000000000    -0.000000000000000     0.110620118714212
1 89
     0.036057919328080     0.000000000000000    -0.506334965846145
    -0.000000000000000    -0.940276979860260    -0.000000000000000
    -0.507702841399131    -0.000000000000000     0.032928837523847
1 90
     0.099956181010056    -0.000000000000000    -0.037966344377025
     0.000000000000000     0.086249331802430     0.000000000000000
    -0.025219156856364    -0.000000000000000    -0.040242435278170
1 91
     0.099956181010056    -0.000000000000000     0.037966344377025
     0.000000000000000     0.086249331802430     0.000000000000000
     0.025219156856364     0.000000000000000    -0.040242435278170
1 92
     0.036057919328080     0.000000000000000     0.506334965846145
    -0.000000000000000    -0.940276979860260    -0.000000000000000
     0.507702841399131     0.000000000000000     0.032928837523847
1 93
    -0.008324251961529     0.364316400584947    -0.073515822558100
     0.137985191763194     0.267194808570197    -0.087269799611476
    -0.070416699438268    -0.256115504837821    -0.064013577856889
1 94
    -0.008324251961529     0.364316400584947     0.073515822558100
     0.137985191763194     0.267194808570197     0.087269799611476
     0.070416699438268     0.256115504837821    -0.064013577856889
1 95
    -0.008324251961529    -0.364316400584947    -0.073515822558100
    -0.137985191763194     0.267194808570197     0.087269799611476
    -0.070416699438268     0.256115504837821    -0.064013577856889
1 96
    -0.008324251961529    -0.364316400584947     0.073515822558100
    -0.137985191763194     0.267194808570197    -0.087269799611476
     0.070416699438268    -0.256115504837821    -0.064013577856889
1 97
     0.056011674185434     0.543593002271345     0.000000000000000
     0.543593002271345     0.056011674185434     0.000000000000000
    -0.000000000000000    -0.000000000000000    -0.991904284025615
1 98
     0.081413032933680     0.083823639445739     0.000000000000000
     0.083823639445739     0.081413032933680     0.000000000000000
    -0.000000000000000     0.000000000000000    -0.173122200735165
1 99
     0.081413032933680    -0.083823639445739    -0.000000000000000
    -0.083823639445739     0.081413032933680     0.000000000000000
    -0.000000000000000     0.000000000000000    -0.173122200735165
1 100
     0.056011674185434    -0.543593002271345     0.000000000000000
    -0.543593002271345     0.056011674185434     0.000000000000000
     0.000000000000000     0.000000000000000    -0.991904284025615
1 101
     0.081413032933680     0.083823639445739     0.000000000000000
     0.083823639445739     0.081413032933680     0.000000000000000
     0.000000000000000    -0.000000000000000    -0.173122200735165
1 102
     0.056011674185434     0.543593002271345     0.000000000000000
     0.543593002271345     0.056011674185434     0.000000000000000
    -0.000000000000000     0.000000000000000    -0.991904284025615
1 103
     0.056011674185434    -0.543593002271345     0.000000000000000
    -0.543593002271345     0.056011674185434     0.000000000000000
    -0.000000000000000     0.000000000000000    -0.991904284025615
1 104
     0.081413032933680    -0.083823639445739     0.000000000000000
    -0.083823639445739     0.081413032933680     0.000000000000000
    -0.000000000000000    -0.000000000000000    -0.173122200735165
1 105
    -0.049882665877468     0.104869902701913     0.248644631389000
     0.104869902701913    -0.049882665877468     0.248644631389000
     0.092895004748639     0.092895004748639     0.336201874172418
1 106
     0.039691495091296     0.042659470129131     0.015364035722117
     0.042659470129131     0.039691495091296    -0.015364035722117
     0.012933987194317    -0.012933987194317     0.084803190077557
1 107
     0.039691495091296    -0.042659470129131    -0.015364035722117
    -0.042659470129131     0.039691495091296    -0.015364035722117
    -0.012933987194317    -0.012933987194317     0.084803190077557
1 108
    -0.049882665877468    -0.104869902701913    -0.248644631389000
    -0.104869902701913    -0.049882665877468     0.248644631389000
    -0.092895004748639     0.092895004748639     0.336201874172418
1 109
     0.039691495091296     0.042659470129131    -0.015364035722117
     0.042659470129131     0.039691495091296     0.015364035722117
    -0.012933987194317     0.012933987194317     0.084803190077557
1 110
    -0.049882665877468     0.104869902701913    -0.248644631389000
     0.104869902701913    -0.049882665877468    -0.248644631389000
    -0.092895004748639    -0.092895004748639     0.336201874172418
1 111
    -0.049882665877468    -0.104869902701913     0.248644631389000
    -0.104869902701913    -0.049882665877468    -0.248644631389000
     0.092895004748639    -0.092895004748639     0.336201874172418
1 112
     0.039691495091296    -0.042659470129131     0.015364035722117
    -0.042659470129131     0.039691495091296     0.015364035722117
     0.012933987194317     0.012933987194317     0.084803190077557
1 113
    -0.049882665877468     0.104869902701913    -0.248644631389000
     0.104869902701913    -0.049882665877468    -0.248644631389000
    -0.092895004748639    -0.092895004748639     0.336201874172418
1 114
     0.039691495091296     0.042659470129131    -0.015364035722117
     0.042659470129131     0.039691495091296     0.015364035722117
    -0.012933987194317     0.012933987194317     0.084803190077557
1 115
     0.039691495091296    -0.042659470129131     0.015364035722117
    -0.042659470129131     0.039691495091296     0.015364035722117
     0.012933987194317     0.012933987194317     0.084803190077557
1 116
    -0.049882665877468    -0.104869902701913     0.248644631389000
    -0.104869902701913    -0.049882665877468    -0.248644631389000
     0.092895004748639    -0.092895004748639     0.336201874172418
1 117
     0.039691495091296     0.042659470129131     0.015364035722117
     0.042659470129131     0.039691495091296    -0.015364035722117
     0.012933987194317    -0.012933987194317     0.084803190077557
1 118
    -0.049882665877468     0.104869902701913     0.248644631389000
     0.104869902701913    -0.049882665877468     0.248644631389000
     0.092895004748639     0.092895004748639     0.336201874172418
1 119
    -0.049882665877468    -0.104869902701913    -0.248644631389000
    -0.104869902701913    -0.049882665877468     0.248644631389000
    -0.092895004748639     0.092895004748639     0.336201874172418
1 120
     0.039691495091296    -0.042659470129131    -0.015364035722117
    -0.042659470129131     0.039691495091296    -0.015364035722117
    -0.012933987194317    -0.012933987194317     0.084803190077557
25 1
    -0.206196082813803    -1.428561411113703    -1.349472434168708
    -1.428561411113703    -0.206196082813803    -1.349472434168707
    -1.344380206829484    -1.344380206829484    -0.184519380889678
25 2
    -0.206196082813803     1.428561411113703     1.349472434168708
     1.428561411113703    -0.206196082813803    -1.349472434168707
     1.344380206829484    -1.344380206829485    -0.184519380889678
25 3
    -0.229720056617701     0.213862508518371     0.114739372427330
     0.213862508518370    -0.229720056617701     0.114739372427330
     0.037646148781861     0.037646148781861     0.089160512483573
25 4
    -0.229720056617701    -0.213862508518370    -0.114739372427330
    -0.213862508518370    -0.229720056617701     0.114739372427330
    -0.037646148781861     0.037646148781861     0.089160512483573
25 5
    -0.206196082813803     1.428561411113704    -1.349472434168708
     1.428561411113703    -0.206196082813803     1.349472434168707
    -1.344380206829485     1.344380206829485    -0.184519380889678
25 6
    -0.206196082813803    -1.428561411113703     1.349472434168708
    -1.428561411113703    -0.206196082813803     1.349472434168707
     1.344380206829485     1.344380206829484    -0.184519380889678
25 7
    -0.229720056617701    -0.213862508518371     0.114739372427330
    -0.213862508518370    -0.229720056617701    -0.114739372427330
     0.037646148781861    -0.037646148781861     0.089160512483573
25 8
    -0.229720056617701     0.213862508518370    -0.114739372427330
     0.213862508518370    -0.229720056617701    -0.114739372427330
    -0.037646148781861    -0.037646148781861     0.089160512483573
25 9
    -0.206196082813803    -1.428561411113703     1.349472434168708
    -1.428561411113703    -0.206196082813803     1.349472434168707
     1.344380206829484     1.344380206829484    -0.184519380889678
25 10
    -0.206196082813803     1.428561411113704    -1.349472434168708
     1.428561411113703    -0.206196082813803     1.349472434168707
    -1.344380206829485     1.344380206829484    -0.184519380889678
25 11
    -0.229720056617701     0.213862508518370    -0.114739372427330
     0.213862508518370    -0.229720056617701    -0.114739372427330
    -0.037646148781861    -0.037646148781861     0.089160512483573
25 12
    -0.229720056617701    -0.213862508518370     0.114739372427330
    -0.213862508518370    -0.229720056617701    -0.114739372427330
     0.037646148781861    -0.037646148781861     0.089160512483573
25 13
    -0.206196082813803     1.428561411113704     1.349472434168708
     1.428561411113703    -0.206196082813803    -1.349472434168707
     1.344380206829484    -1.344380206829484    -0.184519380889678
25 14
    -0.206196082813803    -1.428561411113704    -1.349472434168708
    -1.428561411113703    -0.206196082813803    -1.349472434168707
    -1.344380206829484    -1.344380206829485    -0.184519380889678
25 15
    -0.229720056617701    -0.213862508518371    -0.114739372427330
    -0.213862508518370    -0.229720056617701     0.114739372427330
    -0.037646148781861     0.037646148781861     0.089160512483573
25 16
    -0.229720056617701     0.213862508518370     0.114739372427330
     0.213862508518370    -0.229720056617701     0.114739372427330
     0.037646148781861     0.037646148781861     0.089160512483573
25 17
     0.075868952356259    -0.070795735704289     0.000000000000000
    -0.070795735704289     0.075868952356259    -0.000000000000000
    -0.000000000000000     0.000000000000000    -0.505979585056985
25 18
     0.075868952356259     0.070795735704289     0.000000000000000
     0.070795735704289     0.075868952356259    -0.000000000000000
     0.000000000000000    -0.000000000000000    -0.505979585056985
25 19
    -0.069812016628011     0.085411836534793     0.000000000000000
     0.085411836534793    -0.069812016628011    -0.000000000000000
    -0.000000000000000    -0.000000000000000    -0.168920953481254
25 20
    -0.069812016628011    -0.085411836534793     0.000000000000000
    -0.085411836534793    -0.069812016628011    -0.000000000000000
    -0.000000000000000    -0.000000000000000    -0.168920953481254
25 21
     0.075868952356259     0.070795735704289     0.000000000000000
     0.070795735704289     0.075868952356259    -0.000000000000000
    -0.000000000000000     0.000000000000000    -0.505979585056985
25 22
     0.075868952356259    -0.070795735704289     0.000000000000000
    -0.070795735704289     0.075868952356259    -0.000000000000000
    -0.000000000000000     0.000000000000000    -0.505979585056985
25 23
    -0.069812016628011    -0.085411836534793     0.000000000000000
    -0.085411836534793    -0.069812016628011    -0.000000000000000
    -0.000000000000000     0.000000000000000    -0.168920953481254
25 24
    -0.069812016628011     0.085411836534793     0.000000000000000
     0.085411836534793    -0.069812016628011    -0.000000000000000
     0.000000000000000     0.000000000000000    -0.168920953481254
25 25
    22.219935507101130    -0.000000000000001    -0.000000000000000
    -0.000000000000000    22.219935507101113     0.000000000000000
     0.000000000000000    -0.000000000000000    22.203554199285694
25 26
    -5.737326578205800    -0.000000000000000    -0.000000000000000