   2    2
1 1
    13.470050020418157     0.000000000000000     0.000000000000000
     0.000000000000001    13.470050020418160     0.000000000000001
    -0.000000000000000     0.000000000000003    13.470050020418158
1 2
   -13.470050020418157    -0.000000000000000    -0.000000000000000
    -0.000000000000001   -13.470050020418160    -0.000000000000001
     0.000000000000000    -0.000000000000003   -13.470050020418158
2 1
   -13.470050020418160     0.000000000000001    -0.000000000000000
     0.000000000000000   -13.470050020418157     0.000000000000000
    -0.000000000000003    -0.000000000000000   -13.470050020418158
2 2
    13.470050020418160    -0.000000000000001     0.000000000000000
    -0.000000000000000    13.470050020418157    -0.000000000000000
     0.000000000000003     0.000000000000000    13.470050020418158