# remapped force constants from FORCE_CONSTANTS, shape [(6, 6)]
1.347005002041815658e+01 0.000000000000000000e+00 0.000000000000000000e+00 -1.347005002041815658e+01 0.000000000000000000e+00 0.000000000000000000e+00
1.000000000000000078e-15 1.347005002041816013e+01 1.000000000000000078e-15 -1.000000000000000078e-15 -1.347005002041816013e+01 -1.000000000000000078e-15
0.000000000000000000e+00 2.999999999999999839e-15 1.347005002041815835e+01 0.000000000000000000e+00 -2.999999999999999839e-15 -1.347005002041815835e+01
-1.347005002041816013e+01 1.000000000000000078e-15 0.000000000000000000e+00 1.347005002041816013e+01 -1.000000000000000078e-15 0.000000000000000000e+00
0.000000000000000000e+00 -1.347005002041815658e+01 0.000000000000000000e+00 0.000000000000000000e+00 1.347005002041815658e+01 0.000000000000000000e+00
-2.999999999999999839e-15 0.000000000000000000e+00 -1.347005002041815835e+01 2.999999999999999839e-15 0.000000000000000000e+00 1.347005002041815835e+01
