  MPI-parallelism will be employed.
------------------------------------------------------------
          Invoking FHI-aims ...

          When using FHI-aims, please cite the following reference:

          Volker Blum, Ralf Gehrke, Felix Hanke, Paula Havu,
          Ville Havu, Xinguo Ren, Karsten Reuter, and Matthias Scheffler,
          'Ab Initio Molecular Simulations with Numeric Atom-Centered Orbitals',
          Computer Physics Communications 180, 2175-2196 (2009)

          For any questions about FHI-aims, please visit the aimsclub website
          with its forums and wiki. Contributions to both the forums and the
          wiki are warmly encouraged - they are for you, and everyone is welcome there.

------------------------------------------------------------



  Date     :  20191009, Time     :  155909.017
  Time zero on CPU 1             :   0.355500000000000E-01  s.
  Internal wall clock time zero  :           339868749.017  s.

  FHI-aims created a unique identifier for this run for later identification
  aims_uuid : 19636B4A-FAA1-4EF9-AF81-D7A2D0634D4B

  Build configuration of the current instance of FHI-aims
  -------------------------------------------------------
  FHI-aims version      : 190813
  Commit number         : 6bedc122e
  CMake host system     : Linux-4.15.0-58-generic
  CMake version         : 3.5.1
  Fortran compiler      : /home/knoop/local/openmpi-3.0.0/build/bin/mpifort (Intel) version 17.0.1.20161005
  Fortran compiler flags: -O3 -ip -fp-model precise
  C compiler            : /usr/bin/gcc (GNU) version 8.3.0
  C compiler flags      :
  Architecture          :
  Using MPI
  Using C files
  Using LibXC
  Using SPGlib
  Using i-PI
  Linking against: /home/knoop/local/anaconda3/pkgs/mkl-2019.4-243/lib/libmkl_intel_lp64.so
                   /home/knoop/local/anaconda3/pkgs/mkl-2019.4-243/lib/libmkl_sequential.so
                   /home/knoop/local/anaconda3/pkgs/mkl-2019.4-243/lib/libmkl_core.so

  Using        4 parallel tasks.
  Task        0 on host theobook135 reporting.
  Task        1 on host theobook135 reporting.
  Task        2 on host theobook135 reporting.
  Task        3 on host theobook135 reporting.

  Performing system and environment tests:
  | Environment variable OMP_NUM_THREADS correctly set to 1.
  | Maximum stacksize for task 0: unlimited
  | Maximum stacksize for task 1: unlimited
  | Maximum stacksize for task 2: unlimited
  | Maximum stacksize for task 3: unlimited
  | Current stacksize for task 0: unlimited
  | Current stacksize for task 1: unlimited
  | Current stacksize for task 2: unlimited
  | Current stacksize for task 3: unlimited
  | Checking for scalapack...
  | No scalapack compiled in.

  Obtaining array dimensions for all initial allocations:
  
  -----------------------------------------------------------------------
  Parsing control.in (first pass over file, find array dimensions only).
  The contents of control.in will be repeated verbatim below
  unless switched off by setting 'verbatim_writeout .false.' .
  in the first line of control.in .
  -----------------------------------------------------------------------
  
  #===============================================================================
  # FHI-aims file: ./control.in
  # Created using the Atomic Simulation Environment (ASE)
  # Wed Oct  9 15:59:08 2019
  #
  # List of parameters used to initialize the calculator:
  #     xc : pw-lda
  #     k_grid : [2, 2, 2]
  #     sc_accuracy_rho : 1e-07
  #     compute_forces : True
  #     relativistic : atomic_zora scalar
  #     output_level : MD_light
  #     use_pimd_wrapper : ('localhost', 12345)
  #     species_dir : /home/knoop/local/hilde/examples/phonopy/basissets
  #===============================================================================
  xc                                 pw-lda
  k_grid                             2 2 2
  sc_accuracy_rho                    1e-07
  compute_forces                     .true.
  relativistic                       atomic_zora scalar
  output_level                       MD_light
  use_pimd_wrapper                   localhost 12345
  #===============================================================================
  
  ################################################################################
  #
  #  FHI-aims code project
  #  VB, Fritz-Haber Institut, 2009
  #
  #  Suggested "light" defaults for Si atom (to be pasted into control.in file)
  #  Be sure to double-check any results obtained with these settings for post-processing,
  #  e.g., with the "tight" defaults and larger basis sets.
  #
  ################################################################################
    species        Si
  #     global species definitions
      nucleus             14
      mass                28.0855
  #
      l_hartree           4
  #
      cut_pot             3.5          1.5  1.0
      basis_dep_cutoff    1e-4
  #
      radial_base         42 5.0
      radial_multiplier   1
      angular_grids       specified
        division   0.5866   50
        division   0.9616  110
        division   1.2249  194
        division   1.3795  302
  #      division   1.4810  434
  #      division   1.5529  590
  #      division   1.6284  770
  #      division   1.7077  974
  #      division   2.4068 1202
  #      outer_grid   974
        outer_grid 302
  ################################################################################
  #
  #  Definition of "minimal" basis
  #
  ################################################################################
  #     valence basis states
      valence      3  s   2.
      valence      3  p   2.
  #     ion occupancy
      ion_occ      3  s   1.
      ion_occ      3  p   1.
  ################################################################################
  #
  #  Suggested additional basis functions. For production calculations,
  #  uncomment them one after another (the most important basis functions are
  #  listed first).
  #
  #  Constructed for dimers: 1.75 A, 2.0 A, 2.25 A, 2.75 A, 3.75 A
  #
  ################################################################################
  #  "First tier" - improvements: -571.96 meV to -37.03 meV
       hydro 3 d 4.2
       hydro 2 p 1.4
  #     hydro 4 f 6.2
       ionic 3 s auto
  #  "Second tier" - improvements: -16.76 meV to -3.03 meV
  #     hydro 3 d 9
  #     hydro 5 g 9.4
  #     hydro 4 p 4
  #     hydro 1 s 0.65
  #  "Third tier" - improvements: -3.89 meV to -0.60 meV
  #     ionic 3 d auto
  #     hydro 3 s 2.6
  #     hydro 4 f 8.4
  #     hydro 3 d 3.4
  #     hydro 3 p 7.8
  #  "Fourth tier" - improvements: -0.33 meV to -0.11 meV
  #     hydro 2 p 1.6
  #     hydro 5 g 10.8
  #     hydro 5 f 11.2
  #     hydro 3 d 1
  #     hydro 4 s 4.5
  #  Further basis functions that fell out of the optimization - noise
  #  level... < -0.08 meV
  #     hydro 4 d 6.6
  #     hydro 5 g 16.4
  #     hydro 4 d 9
  
  -----------------------------------------------------------------------
  Completed first pass over input file control.in .
  -----------------------------------------------------------------------
  
  
  -----------------------------------------------------------------------
  Parsing geometry.in (first pass over file, find array dimensions only).
  The contents of geometry.in will be repeated verbatim below
  unless switched off by setting 'verbatim_writeout .false.' .
  in the first line of geometry.in .
  -----------------------------------------------------------------------
  
  #=======================================================
  # FHI-aims file: ./geometry.in
  # Created using the Atomic Simulation Environment (ASE)
  # Wed Oct  9 15:59:08 2019
  #=======================================================
  lattice_vector 0.0000000000000000 2.7200000000000002 2.7200000000000002
  lattice_vector 5.4400000000000004 0.0000000000000000 5.4400000000000004
  lattice_vector 2.7200000000000002 2.7200000000000002 0.0000000000000000
  atom 0.0070710678118655 -0.0000000000000000 0.0070710678118655 Si
  atom 2.7200000000000002 -0.0000000000000000 2.7200000000000002 Si
  atom 1.3600000000000001 1.3600000000000001 1.3600000000000001 Si
  atom 4.0800000000000010 1.3600000000000001 4.0800000000000001 Si
  
  -----------------------------------------------------------------------
  Completed first pass over input file geometry.in .
  -----------------------------------------------------------------------
  

  Basic array size parameters:
  | Number of species                 :        1
  | Number of atoms                   :        4
  | Number of lattice vectors         :        3
  | Max. basis fn. angular momentum   :        2
  | Max. atomic/ionic basis occupied n:        3
  | Max. number of basis fn. types    :        3
  | Max. radial fns per species/type  :        5
  | Max. logarithmic grid size        :     1346
  | Max. radial integration grid size :       42
  | Max. angular integration grid size:      302
  | Max. angular grid division number :        8
  | Radial grid for Hartree potential :     1346
  | Number of spin channels           :        1

------------------------------------------------------------
          Reading file control.in.
------------------------------------------------------------
  XC: Using Perdew-Wang parametrisation of Ceperley-Alder LDA.
  Found k-point grid:         2         2         2
  Convergence accuracy of self-consistent charge density:  0.1000E-06
  Forces will be computed.
  Scalar relativistic treatment of kinetic energy: on-site free-atom approximation to ZORA.
  Requested output level: MD_light            
  Using external wrapper (i-PI) for performing (path integral) molecular dynamics
  **Attention: initial geometry.in file will be ignored!
 
  Reading configuration options for species Si                  .
  | Found nuclear charge :  14.0000
  | Found atomic mass :    28.0855000000000      amu
  | Found l_max for Hartree potential  :   4
  | Found cutoff potl. onset [A], width [A], scale factor :    3.50000    1.50000    1.00000
  | Threshold for basis-dependent cutoff potential is   0.100000E-03
  | Found data for basic radial integration grid :    42 points, outermost radius =    5.000 A
  | Found multiplier for basic radial grid :   1
  | Found angular grid specification: user-specified.
  | Specified grid contains     5 separate shells.
  | Check grid settings after all constraints further below.
  | Found free-atom valence shell :  3 s   2.000
  | Found free-atom valence shell :  3 p   2.000
  | Found free-ion valence shell :  3 s   1.000
  | Found free-ion valence shell :  3 p   1.000
  | Found hydrogenic basis function :  3 d   4.200
  | Found hydrogenic basis function :  2 p   1.400
  | Found ionic basis function :  3 s , default cutoff radius.
  Species Si                  : Missing cutoff potential type.
  Defaulting to exp(1/x)/(1-x)^2 type cutoff potential.
  Species Si: No 'logarithmic' tag. Using default grid for free atom:
  | Default logarithmic grid data [bohr] : 0.1000E-03 0.1000E+03 0.1012E+01
  | Will include ionic basis functions of  2.0-fold positive Si                   ion.
  Species Si: On-site basis accuracy parameter (for Gram-Schmidt orthonormalisation) not specified.
  Using default value basis_acc =  0.1000000E-03.
  Species Si                  : Using default innermost maximum threshold i_radial=  2 for radial functions.
  Species Si                  : Default cutoff onset for free atom density etc. : 0.35000000E+01 AA.
  Species Si                  : Basic radial grid will be enhanced according to radial_multiplier =   1, to contain    42 grid points.
 
  Finished reading input file 'control.in'. Consistency checks are next.
 
  MPI_IN_PLACE appears to work with this MPI implementation.
  | Keeping use_mpi_in_place .true. (see manual).
  Target number of points in a grid batch is not set. Defaulting to  100
  Method for grid partitioning is not set. Defaulting to parallel hash+maxmin partitioning.
  Batch size limit is not set. Defaulting to    200
  By default, will store active basis functions for each batch.
  If in need of memory, prune_basis_once .false. can be used to disable this option.
  communication_type for Hartree potential was not specified.
  Defaulting to calc_hartree .
  Defaulting to Pulay charge density mixer.
  Pulay mixer: Number of relevant iterations not set.
  Defaulting to    8 iterations.
  Pulay mixer: Number of initial linear mixing iterations not set.
  Defaulting to    0 iterations.
  Work space size for distributed Hartree potential not set.
  Defaulting to   0.200000E+03 MB.
  Mixing parameter for charge density mixing has not been set.
  Using default: charge_mix_param =     0.0500.
  The mixing parameter will be adjusted in iteration number     2 of the first full s.c.f. cycle only.
  Algorithm-dependent basis array size parameters:
  | n_max_pulay                         :        8
  Maximum number of self-consistency iterations not provided.
  Presetting  1000 iterations.
  Presetting      1001 iterations before the initial mixing cycle
  is restarted anyway using the sc_init_iter criterion / keyword.
  Presetting a factor      1.000 between actual scf density residual
  and density convergence criterion sc_accuracy_rho below which sc_init_iter
  takes no effect.
  Geometry relaxation not requested: no relaxation will be performed.
  Force calculation: scf convergence accuracy of forces not set.
  Defaulting to 'sc_accuracy_forces not_checked'.
  Handling of forces: Unphysical translation and rotation will be removed from forces.
  No accuracy limit for integral partition fn. given. Defaulting to  0.1000E-14.
  No threshold value for u(r) in integrations given. Defaulting to  0.1000E-05.
  No occupation type (smearing scheme) given. Defaulting to Gaussian broadening, width =  0.1000E-01 eV.
  The width will be adjusted in iteration number     2 of the first full s.c.f. cycle only.
  S.C.F. convergence parameters will be adjusted in iteration number     2 of the first full s.c.f. cycle only.
  No accuracy for occupation numbers given. Defaulting to  0.1000E-12.
  No threshold value for occupation numbers given. Defaulting to  0.0000E+00.
  No accuracy for fermi level given. Defaulting to  0.1000E-19.
  Maximum # of iterations to find E_F not set. Defaulting to  200.
  Preferred method for the eigenvalue solver ('KS_method') not specified in 'control.in'.
  Defaulting to serial version, LAPACK (via ELSI), since more k-points than CPUs available.
  Will not use alltoall communication since running on < 1024 CPUs.
  Threshold for basis singularities not set.
  Default threshold for basis singularities:  0.1000E-04
  partition_type (choice of integration weights) for integrals was not specified.
  | Using a version of the partition function of Stratmann and coworkers ('stratmann_sparse').
  | At each grid point, the set of atoms used to build the partition table is smoothly restricted to
  | only those atoms whose free-atom density would be non-zero at that grid point.
  Partitioning for Hartree potential was not defined. Using partition_type for integrals.
  | Adjusted default value of keyword multip_moments_threshold to:       0.10000000E-11
  | This value may affect high angular momentum components of the Hartree potential in periodic systems.
  Spin handling was not defined in control.in. Defaulting to unpolarized case.
  Angular momentum expansion for Kerker preconditioner not set explicitly.
  | Using default value of   0
  No explicit requirement for turning off preconditioner.
  | By default, it will be turned off when the charge convergence reaches
  | sc_accuracy_rho  =   0.100000E-06
  No special mixing parameter while Kerker preconditioner is on.
  Using default: charge_mix_param =     0.0500.
  No q(lm)/r^(l+1) cutoff set for long-range Hartree potential.
  | Using default value of  0.100000E-09 .
  | Verify using the multipole_threshold keyword.
  Defaulting to new monopole extrapolation.
  Density update method: automatic selection selected.
  Using density matrix based charge density update.
  Using density matrix based charge density update.
  Using packed matrix style: index .
  Defaulting to use time-reversal symmetry for k-point grid.
------------------------------------------------------------


------------------------------------------------------------
          Reading geometry description geometry.in.
------------------------------------------------------------
  Input structure read successfully.
  The structure contains        4 atoms,  and a total of         56.000 electrons.

  Input geometry:
  | Unit cell:
  |        0.00000000        2.72000000        2.72000000
  |        5.44000000        0.00000000        5.44000000
  |        2.72000000        2.72000000        0.00000000
  | Atomic structure:
  |       Atom                x [A]            y [A]            z [A]
  |    1: Species Si            0.00707107        0.00000000        0.00707107
  |    2: Species Si            2.72000000        0.00000000        2.72000000
  |    3: Species Si            1.36000000        1.36000000        1.36000000
  |    4: Species Si            4.08000000        1.36000000        4.08000000

  Lattice parameters for 3D lattice (in Angstroms) :     3.846661    7.693322    3.846661
  Angle(s) between unit vectors (in degrees)       :    60.000000   60.000000   60.000000

  | The smallest distance between any two atoms is         2.34743123 AA.
  | The first atom of this pair is atom number                      1 .
  | The second atom of this pair is atom number                     3 .
  | Wigner-Seitz cell of the first atom image           0     0     0 .
  | (The Wigner-Seitz cell of the second atom is 0 0 0  by definition.)

  Symmetry information by spglib:
  | Precision set to  0.1E-04
  | Number of Operations  : 2
  | Space group           : 8
  | International         : Cm
  | Schoenflies           : Cs^3

  Quantities derived from the lattice vectors:
  | Reciprocal lattice vector 1: -1.154997  1.154997  1.154997
  | Reciprocal lattice vector 2:  0.577499 -0.577499  0.577499
  | Reciprocal lattice vector 3:  1.154997  1.154997 -1.154997
  | Unit cell volume                               :   0.804946E+02  A^3

  Range separation radius for Ewald summation (hartree_convergence_parameter):      3.89607948 bohr.

  Number of empty states per atom not set in control.in - providing a guess from actual geometry.
  | Total number of empty states used during s.c.f. cycle:       12
  If you use a very high smearing, use empty_states (per atom!) in control.in to increase this value.

  Structure-dependent array size parameters: 
  | Maximum number of distinct radial functions  :        8
  | Maximum number of basis functions            :       72
  | Number of Kohn-Sham states (occupied + empty):       40
------------------------------------------------------------

************************** W A R N I N G *******************************
* You are using the PIMD wrapper. Specifications and positions         *
* in geometry.in will be IGNORED - all is received from the wrapper.   *
* Please make sure species are declared in the same order in           *
* geometry.in and wrapper input.                                       *
************************************************************************


------------------------------------------------------------
          Preparing all fixed parts of the calculation.
------------------------------------------------------------
  Determining machine precision:
    2.225073858507201E-308
  Setting up grids for atomic and cluster calculations.

  Creating wave function, potential, and density for free atoms.

  Species: Si

  List of occupied orbitals and eigenvalues:
    n    l              occ      energy [Ha]    energy [eV]
    1    0           2.0000       -65.491668     -1782.1190
    2    0           2.0000        -5.087967      -138.4506
    3    0           2.0000        -0.391471       -10.6525
    2    1           6.0000        -3.502246       -95.3010
    3    1           2.0000        -0.143943        -3.9169

  Creating fixed part of basis set: Ionic, confined, hydrogenic.
 
  Si                   ion:

  List of free ionic orbitals and eigenvalues:
    n    l      energy [Ha]    energy [eV]
    1    0       -66.364436     -1805.8682
    2    0        -5.935799      -161.5213
    3    0        -1.078166       -29.3384
    2    1        -4.351123      -118.4001
    3    1        -0.781733       -21.2720


  List of ionic basis orbitals and eigenvalues:
    n    l      energy [Ha]    energy [eV]    outer radius [A]
    3    0        -1.078146       -29.3378       4.214062

 
  Si                   hydrogenic:
 
  List of hydrogenic basis orbitals: 
    n    l      effective z      eigenvalue [eV]  inner max. [A]     outer max. [A]     outer radius [A]   
    3    2         4.200000       -26.6624           1.139231           1.139231           4.534782
    2    1         1.400000        -6.4613           1.472672           1.472672           4.590560
 

  Adding cutoff potential to free-atom effective potential.
  Creating atomic-like basis functions for current effective potential.

  Species Si                  :

  List of atomic basis orbitals and eigenvalues:
    n    l      energy [Ha]    energy [eV]    outer radius [A]
    1    0       -65.491668     -1782.1190       0.789468
    2    0        -5.087967      -138.4506       2.815114
    3    0        -0.391471       -10.6525       4.534782
    2    1        -3.502246       -95.3010       3.259919
    3    1        -0.143943        -3.9169       4.590560

  Assembling full basis from fixed parts.
  | Species Si :   atomic orbital   1 s accepted.
  | Species Si :   atomic orbital   2 s accepted.
  | Species Si :    ionic orbital   3 s accepted.
  | Species Si :   atomic orbital   3 s accepted.
  | Species Si :   atomic orbital   2 p accepted.
  | Species Si :   atomic orbital   3 p accepted.
  | Species Si :    hydro orbital   2 p accepted.
  | Species Si :    hydro orbital   3 d accepted.
 
  Basis size parameters after reduction:
  | Total number of radial functions:        8
  | Total number of basis functions :       72
 
  Per-task memory consumption for arrays in subroutine allocate_ext:
  |           2.758668MB.
  Testing on-site integration grid accuracy.
  |  Species  Function  <phi|h_atom|phi> (log., in eV)  <phi|h_atom|phi> (rad., in eV)
           1        1              -1782.1189727076              -1782.1182429251
           1        2               -138.4506350693               -138.4506310079
           1        3                -10.3030408815                -10.3029120678
           1        4                  5.0238999146                  4.9457540310 ***
           1        5                -95.3009689499                -95.3009689315
           1        6                 -3.9266496564                 -3.9420918374
           1        7                  6.3453628447                  6.1632372158 ***
           1        8                  6.2883050744                  6.2861881409
 * Note: Onsite integrals marked "***" above are less accurate than
 * onsite_accuracy_threshold =    0.03000 eV. Usually, this is harmless.
 * When in doubt, tighten the "radial" and/or "radial_multiplier" flags to check.

  Preparing densities etc. for the partition functions (integrals / Hartree potential).

  Preparations completed.
  max(cpu_time)          :      0.131 s.
  Wall clock time (cpu1) :      0.134 s.
------------------------------------------------------------

************************** W A R N I N G *******************************
* Skipping the SCF initialization for now - done inside wrapper      *
************************************************************************

  @ DRIVER MODE: Connecting to host:port localhost       12345
  @ DRIVER MODE: Message from server: STATUS      
  @ DRIVER MODE: Message from server: POSDATA     
  @ DRIVER MODE: Received positions 

------------------------------------------------------------
          Begin self-consistency loop: Initialization.

          Date     :  20191009, Time     :  155909.257
------------------------------------------------------------

  Initializing index lists of integration centers etc. from given atomic structure:
  Mapping all atomic coordinates to central unit cell.

  Initializing the k-points
          Using symmetry for reducing the k-points
  | k-points reduced from:        8 to        8
  | Number of k-points                             :         8
  The eigenvectors in the calculations are REAL.
  | K-points in task   0:         2
  | K-points in task   1:         2
  | K-points in task   2:         2
  | K-points in task   3:         2
  | Number of basis functions in the Hamiltonian integrals :      1758
  | Number of basis functions in a single unit cell        :        72
  | Number of centers in hartree potential         :       862
  | Number of centers in hartree multipole         :       394
  | Number of centers in electron density summation:       256
  | Number of centers in basis integrals           :       294
  | Number of centers in integrals                 :       136
  | Number of centers in hamiltonian               :       256
  | Consuming         11 KiB for k_phase.
  | Number of super-cells (origin) [n_cells]                     :        1183
  | Number of super-cells (after PM_index) [n_cells]             :          88
  | Number of super-cells in hamiltonian [n_cells_in_hamiltonian]:          88
  | Size of matrix packed + index [n_hamiltonian_matrix_size] :       84253
  | Estimated reciprocal-space cutoff momentum G_max:         2.39585183 bohr^-1 .
  | Reciprocal lattice points for long-range Hartree potential:     128
  Partitioning the integration grid into batches with parallel hashing+maxmin method.
  | Number of batches:      303
  | Maximal batch size:     109
  | Minimal batch size:      51
  | Average batch size:      73.980
  | Standard deviation of batch sizes:      10.451

  Integration load balanced across     4 MPI tasks.
  Work distribution over tasks is as follows:
  Task     0 has       5559 integration points.
  Task     1 has       5610 integration points.
  Task     2 has       5609 integration points.
  Task     3 has       5638 integration points.
  Initializing partition tables, free-atom densities, potentials, etc. across the integration grid (initialize_grid_storage).
  | initialize_grid_storage: Actual outermost partition radius vs. multipole_radius_free
  | (-- VB: in principle, multipole_radius_free should be larger, hence this output)
  | Species        1: Confinement radius =              4.999999999999999 AA, multipole_radius_free =              5.000694715736543 AA.
  | Species        1: outer_partition_radius set to              5.000694715736543 AA .
  | The sparse table of interatomic distances needs        352.71 kbyte instead of       691.49 kbyte of memory.
  | Net number of integration points:    22416
  | of which are non-zero points    :    19620
  | Numerical average free-atom electrostatic potential    :    -13.07506160 eV
  Renormalizing the initial density to the exact electron count on the 3D integration grid.
  | Initial density: Formal number of electrons (from input files) :      56.0000000000
  | Integrated number of electrons on 3D grid     :      56.0100371054
  | Charge integration error                      :       0.0100371054
  | Normalization factor for density and gradient :       0.9998207981
  Obtaining max. number of non-zero basis functions in each batch (get_n_compute_maxes).
  | Maximal number of non-zero basis functions:      447 in task     0
  | Maximal number of non-zero basis functions:      473 in task     1
  | Maximal number of non-zero basis functions:      463 in task     2
  | Maximal number of non-zero basis functions:      465 in task     3
  Allocating        0.044 MB for KS_eigenvector
  Integrating Hamiltonian matrix: batch-based integration.
  Time summed over all CPUs for integration: real work        0.649 s, elapsed        0.653 s
  Integrating overlap matrix.
  Time summed over all CPUs for integration: real work        0.502 s, elapsed        0.505 s
  Decreasing sparse matrix size:
   Tolerance:  9.999999824516700E-014
   Hamiltonian matrix
  | Array has    76159 nonzero elements out of    84253 elements
  | Sparsity factor is 0.096
   Overlap matrix
  | Array has    73979 nonzero elements out of    84253 elements
  | Sparsity factor is 0.122
  New size of hamiltonian matrix:       76160

  Updating Kohn-Sham eigenvalues and eigenvectors using ELSI and the (modified) LAPACK eigensolver.
  Singularity check in k-point 4, task 0 (analysis for other k-points/tasks may follow below):

  Obtaining occupation numbers and chemical potential using ELSI.
  | Chemical potential (Fermi level):    -5.50654865 eV
  Writing Kohn-Sham eigenvalues.
  K-point:       1 at    0.000000    0.000000    0.000000 (in units of recip. lattice)

  State    Occupation    Eigenvalue [Ha]    Eigenvalue [eV]
      1       2.00000         -65.513161        -1782.70381
      2       2.00000         -65.513009        -1782.69969
      3       2.00000         -65.513006        -1782.69961
      4       2.00000         -65.512855        -1782.69548
      5       2.00000          -5.114405         -139.17005
      6       2.00000          -5.114209         -139.16470
      7       2.00000          -5.114119         -139.16225
      8       2.00000          -5.113925         -139.15699
      9       2.00000          -3.528774          -96.02282
     10       2.00000          -3.528710          -96.02108
     11       2.00000          -3.528653          -96.01954
     12       2.00000          -3.528540          -96.01646
     13       2.00000          -3.528539          -96.01644
     14       2.00000          -3.528428          -96.01342
     15       2.00000          -3.528072          -96.00373
     16       2.00000          -3.528057          -96.00330
     17       2.00000          -3.528021          -96.00233
     18       2.00000          -3.527867          -95.99814
     19       2.00000          -3.527848          -95.99764
     20       2.00000          -3.527848          -95.99763
     21       2.00000          -0.665970          -18.12197
     22       2.00000          -0.583235          -15.87062
     23       2.00000          -0.482060          -13.11751
     24       2.00000          -0.275166           -7.48764
     25       2.00000          -0.274419           -7.46732
     26       2.00000          -0.233972           -6.36670
     27       2.00000          -0.233032           -6.34113
     28       2.00000          -0.232078           -6.31518
     29       0.00000          -0.173252           -4.71442
     30       0.00000          -0.130035           -3.53842
     31       0.00000          -0.129532           -3.52474
     32       0.00000          -0.128993           -3.51006
     33       0.00000          -0.112850           -3.07080
     34       0.00000          -0.099951           -2.71981
     35       0.00000          -0.099142           -2.69779
     36       0.00000           0.065806            1.79068
     37       0.00000           0.065815            1.79092
     38       0.00000           0.121807            3.31453
     39       0.00000           0.155344            4.22711
     40       0.00000           0.173446            4.71971

  What follows are estimated values for band gap, HOMO, LUMO, etc.
  | They are estimated on a discrete k-point grid and not necessarily exact.
  | For converged numbers, create a DOS and/or band structure plot on a denser k-grid.

  Highest occupied state (VBM) at     -6.31517724 eV (relative to internal zero)
  | Occupation number:      2.00000000
  | K-point:       1 at    0.000000    0.000000    0.000000 (in units of recip. lattice)

  Lowest unoccupied state (CBM) at    -5.32604329 eV (relative to internal zero)
  | Occupation number:      0.00000000
  | K-point:       5 at    0.500000    0.000000    0.000000 (in units of recip. lattice)

  ESTIMATED overall HOMO-LUMO gap:      0.98913395 eV between HOMO at k-point 1 and LUMO at k-point 5
  | This appears to be an indirect band gap.
  | Smallest direct gap :      1.60076208 eV for k_point 1 at    0.500000    0.000000    0.000000 (in units of recip. lattice)
  The gap value is above 0.2 eV. Unless you are using a very sparse k-point grid,
  this system is most likely an insulator or a semiconductor.
  Calculating total energy contributions from superposition of free atom densities.

  Total energy components:
  | Sum of eigenvalues            :        -656.23873067 Ha      -17857.16442405 eV
  | XC energy correction          :         -79.31481257 Ha       -2158.26586127 eV
  | XC potential correction       :         104.78773903 Ha        2851.41945752 eV
  | Free-atom electrostatic energy:        -526.62690576 Ha      -14330.24722056 eV
  | Hartree energy correction     :           0.00000000 Ha           0.00000000 eV
  | Entropy correction            :          -0.00000000 Ha          -0.00000000 eV
  | ---------------------------
  | Total energy                  :       -1157.39270996 Ha      -31494.25804835 eV
  | Total energy, T -> 0          :       -1157.39270996 Ha      -31494.25804835 eV  <-- do not rely on this value for anything but (periodic) metals
  | Electronic free energy        :       -1157.39270996 Ha      -31494.25804835 eV

  Derived energy quantities:
  | Kinetic energy                :        1159.48949484 Ha       31551.31446773 eV
  | Electrostatic energy          :       -2237.56739224 Ha      -60887.30665482 eV
  | Energy correction for multipole
  | error in Hartree potential    :           0.00000000 Ha           0.00000000 eV
  | Sum of eigenvalues per atom                           :       -4464.29110601 eV
  | Total energy (T->0) per atom                          :       -7873.56451209 eV  <-- do not rely on this value for anything but (periodic) metals
  | Electronic free energy per atom                       :       -7873.56451209 eV
  Initialize hartree_potential_storage
  Max. number of atoms included in rho_multipole:            4

  End scf initialization - timings             :  max(cpu_time)    wall_clock(cpu1)
  | Time for scf. initialization               :        0.560 s           0.596 s
  | Boundary condition initialization          :        0.070 s           0.071 s
  | Integration                                :        0.287 s           0.292 s
  | Solution of K.-S. eqns.                    :        0.008 s           0.021 s
  | Grid partitioning                          :        0.034 s           0.040 s
  | Preloading free-atom quantities on grid    :        0.003 s           0.004 s
  | Free-atom superposition energy             :        0.043 s           0.042 s
  | Total energy evaluation                    :        0.000 s           0.002 s

  Partial memory accounting:
  | Current value for overall tracked memory usage:
  |   Minimum:        1.497 MB (on task 0)
  |   Maximum:        1.497 MB (on task 0)
  |   Average:        1.497 MB
  | Peak value for overall tracked memory usage:
  |   Minimum:        4.291 MB (on task 0 after allocating wave)
  |   Maximum:        4.538 MB (on task 1 after allocating wave)
  |   Average:        4.433 MB
  | Largest tracked array allocation so far:
  |   Minimum:        1.524 MB (hamiltonian_shell on task 0)
  |   Maximum:        1.707 MB (hamiltonian_shell on task 1)
  |   Average:        1.629 MB
  Note:  These values currently only include a subset of arrays which are explicitly tracked.
  The "true" memory usage will be greater.
------------------------------------------------------------
Convergence:    q app. |  density  | eigen (eV) | Etot (eV) | forces (eV/A) |       CPU time |     Clock time
  SCF    1 :  0.10E-01 |  0.18E+00 |  -0.22E+00 |  0.54E-01 |             . |        0.590 s |        0.593 s
  SCF    2 :  0.19E-01 |  0.17E+00 |   0.59E+02 |  0.51E+00 |             . |        0.647 s |        0.647 s
  SCF    3 :  0.18E-01 |  0.28E-01 |  -0.17E+01 |  0.57E-02 |             . |        0.625 s |        0.624 s
  SCF    4 :  0.15E-01 |  0.25E-01 |  -0.54E+01 |  0.17E-01 |             . |        0.723 s |        0.724 s
  SCF    5 :  0.14E-01 |  0.17E-01 |  -0.91E+00 |  0.19E-02 |             . |        0.793 s |        0.793 s
  SCF    6 :  0.11E-01 |  0.16E-01 |  -0.13E+01 |  0.19E-02 |             . |        0.841 s |        0.841 s
  SCF    7 :  0.98E-02 |  0.14E-01 |  -0.11E+01 |  0.11E-02 |             . |        0.713 s |        0.713 s
  SCF    8 :  0.96E-02 |  0.13E-01 |  -0.37E+00 |  0.38E-03 |             . |        0.766 s |        0.766 s
  SCF    9 :  0.10E-01 |  0.12E-01 |  -0.15E+01 |  0.14E-02 |             . |        0.692 s |        0.692 s
  SCF   10 :  0.11E-01 |  0.10E-01 |  -0.63E+01 |  0.39E-02 |             . |        0.741 s |        0.741 s
  SCF   11 :  0.11E-01 |  0.76E-04 |   0.27E-01 | -0.17E-04 |             . |        0.721 s |        0.721 s
  SCF   12 :  0.10E-01 |  0.42E-04 |   0.72E-02 | -0.12E-05 |             . |        0.779 s |        0.779 s
  SCF   13 :  0.10E-01 |  0.98E-05 |   0.72E-04 |  0.54E-06 |             . |        0.789 s |        0.789 s
  SCF   14 :  0.10E-01 |  0.69E-05 |  -0.93E-04 |  0.73E-06 |             . |        0.788 s |        0.788 s
  SCF   15 :  0.10E-01 |  0.20E-05 |   0.42E-04 | -0.70E-07 |             . |        0.724 s |        0.724 s
  SCF   16 :  0.10E-01 |  0.58E-06 |   0.35E-04 | -0.16E-07 |             . |        0.790 s |        0.790 s
  SCF   17 :  0.10E-01 |  0.37E-06 |  -0.59E-04 |  0.27E-07 |             . |        0.760 s |        0.761 s
  SCF   18 :  0.10E-01 |  0.23E-06 |  -0.89E-04 |  0.25E-07 |             . |        0.802 s |        0.801 s
  SCF   19 :  0.10E-01 |  0.95E-07 |  -0.69E-05 |  0.65E-08 |             . |        0.777 s |        0.777 s
  SCF   20 :  0.10E-01 |  0.64E-07 |  -0.72E-05 |  0.16E-07 |      0.42E+01 |        3.675 s |        3.712 s

  Total energy components:
  | Sum of eigenvalues            :        -654.74106966 Ha      -17816.41099440 eV
  | XC energy correction          :         -79.44432272 Ha       -2161.79001183 eV
  | XC potential correction       :         104.95819055 Ha        2856.05767942 eV
  | Free-atom electrostatic energy:        -526.62690576 Ha      -14330.24722056 eV
  | Hartree energy correction     :          -1.51680376 Ha         -41.27433044 eV
  | Entropy correction            :          -0.00000000 Ha          -0.00000000 eV
  | ---------------------------
  | Total energy                  :       -1157.37091135 Ha      -31493.66487781 eV
  | Total energy, T -> 0          :       -1157.37091135 Ha      -31493.66487781 eV  <-- do not rely on this value for anything but (periodic) metals
  | Electronic free energy        :       -1157.37091135 Ha      -31493.66487781 eV

  Derived energy quantities:
  | Kinetic energy                :        1159.27484049 Ha       31545.47342570 eV
  | Electrostatic energy          :       -2237.20142912 Ha      -60877.34829168 eV
  | Energy correction for multipole
  | error in Hartree potential    :           0.03596943 Ha           0.97877786 eV
  | Sum of eigenvalues per atom                           :       -4454.10274860 eV
  | Total energy (T->0) per atom                          :       -7873.41621945 eV  <-- do not rely on this value for anything but (periodic) metals
  | Electronic free energy per atom                       :       -7873.41621945 eV
  What follows are estimated values for band gap, HOMO, LUMO, etc.
  | They are estimated on a discrete k-point grid and not necessarily exact.
  | For converged numbers, create a DOS and/or band structure plot on a denser k-grid.

  Highest occupied state (VBM) at     -5.64905143 eV (relative to internal zero)
  | Occupation number:      2.00000000
  | K-point:       1 at    0.000000    0.000000    0.000000 (in units of recip. lattice)

  Lowest unoccupied state (CBM) at    -5.15592733 eV (relative to internal zero)
  | Occupation number:      0.00000000
  | K-point:       5 at    0.500000    0.000000    0.000000 (in units of recip. lattice)

  ESTIMATED overall HOMO-LUMO gap:      0.49312410 eV between HOMO at k-point 1 and LUMO at k-point 5
  | This appears to be an indirect band gap.
  | Smallest direct gap :      1.31567998 eV for k_point 1 at    0.500000    0.000000    0.000000 (in units of recip. lattice)
  The gap value is above 0.2 eV. Unless you are using a very sparse k-point grid,
  this system is most likely an insulator or a semiconductor.

  Self-consistency cycle converged.

  Removing unitary transformations (pure translations, rotations) from forces on atoms.
  Atomic forces before filtering:
  | Net force on center of mass :   0.155627E-04 -0.547114E-04  0.155121E-04 eV/A
  Atomic forces after filtering:
  | Net force on center of mass :   0.111504E-16  0.111504E-16  0.000000E+00 eV/A

  Energy and forces in a compact form:
  | Total energy uncorrected      :         -0.314936648778068E+05 eV
  | Total energy corrected        :         -0.314936648778068E+05 eV  <-- do not rely on this value for anything but (periodic) metals
  | Electronic free energy        :         -0.314936648778068E+05 eV
  Total atomic forces (unitary forces cleaned) [eV/Ang]:
  |    1         -0.137479072109943E+00          0.281005160390518E-01         -0.137500479143074E+00
  |    2         -0.383857136328942E-01          0.301053939454563E-01         -0.384074437918294E-01
  |    3          0.104392993628558E+00          0.199317454384339E-02          0.104415217012038E+00
  |    4          0.714717921142796E-01         -0.601990845283515E-01          0.714927059228652E-01

  Removing unitary transformations (pure translations, rotations) from forces on atoms.
  Atomic forces before filtering:
  | Net force on center of mass :   0.111504E-16  0.111504E-16  0.000000E+00 eV/A
  Atomic forces after filtering:
  | Net force on center of mass :   0.111504E-16  0.000000E+00  0.000000E+00 eV/A
  @ DRIVER - WARNING: the stress tensor will not be computed
 ------------------------------------------------------------------------
 Atomic structure that was used in the preceding time step of the wrapper
                         x [A]             y [A]             z [A]
  lattice_vector         0.00000000        2.72000000        2.72000000
  lattice_vector         5.43999999        0.00000000        5.43999999
  lattice_vector         2.72000000        2.72000000        0.00000000

            atom         0.00707107       -0.00000000        0.00707107  Si
            atom         2.72000000        0.00000000        2.72000000  Si
            atom         1.36000000        1.36000000        1.36000000  Si
            atom        -1.36000000        1.36000000       -1.36000000  Si
 ------------------------------------------------------------------------
  @ DRIVER MODE: Message from server: STATUS      
  @ DRIVER MODE: Message from server: GETFORCE    
  @ DRIVER MODE: Returning v,forces,stress 
  @ DRIVER MODE: Message from server: STATUS      
  @ DRIVER MODE: Message from server: INIT        
  @ DRIVER MODE: Receiving replica           0
  @ DRIVER MODE: Message from server: STATUS      
  @ DRIVER MODE: Message from server: POSDATA     
  @ DRIVER MODE: Received positions 

------------------------------------------------------------
          Begin self-consistency loop: Re-initialization.

  Date     :  20191009, Time     :  155927.908
------------------------------------------------------------

  Initializing index lists of integration centers etc. from given atomic structure:
  Mapping all atomic coordinates to central unit cell.

  Initializing the k-points
          Using symmetry for reducing the k-points
  | k-points reduced from:        8 to        8
  | Number of k-points                             :         8
  The eigenvectors in the calculations are REAL.
  | K-points in task   0:         2
  | K-points in task   1:         2
  | K-points in task   2:         2
  | K-points in task   3:         2
  | Number of basis functions in the Hamiltonian integrals :      1758
  | Number of basis functions in a single unit cell        :        72
  | Number of centers in hartree potential         :       862
  | Number of centers in hartree multipole         :       394
  | Number of centers in electron density summation:       256
  | Number of centers in basis integrals           :       294
  | Number of centers in integrals                 :       136
  | Number of centers in hamiltonian               :       256
  | Consuming         11 KiB for k_phase.
  | Number of super-cells (origin) [n_cells]                     :        1183
  | Number of super-cells (after PM_index) [n_cells]             :          88
  | Number of super-cells in hamiltonian [n_cells_in_hamiltonian]:          88
  | Size of matrix packed + index [n_hamiltonian_matrix_size] :       84253
  Partitioning the integration grid into batches with parallel hashing+maxmin method.
  Initializing partition tables, free-atom densities, potentials, etc. across the integration grid (initialize_grid_storage).
  | Species        1: outer_partition_radius set to              5.000694715736543 AA .
  | The sparse table of interatomic distances needs        352.71 kbyte instead of       691.49 kbyte of memory.
  | Net number of integration points:    22416
  | of which are non-zero points    :    19620
  Renormalizing the initial density to the exact electron count on the 3D integration grid.
  | Initial density: Formal number of electrons (from input files) :      56.0000000000
  | Integrated number of electrons on 3D grid     :      56.0100371057
  | Charge integration error                      :       0.0100371057
  | Normalization factor for density and gradient :       0.9998207981
  Calculating total energy contributions from superposition of free atom densities.
  Initialize hartree_potential_storage
  Max. number of atoms included in rho_multipole:            4
  Integrating overlap matrix.
  Time summed over all CPUs for integration: real work        0.552 s, elapsed        0.568 s
  Orthonormalizing eigenvectors

  End scf reinitialization - timings           :  max(cpu_time)    wall_clock(cpu1)
  | Time for scf. reinitialization             :        0.414 s           0.416 s
  | Boundary condition initialization          :        0.074 s           0.074 s
  | Integration                                :        0.143 s           0.143 s
  | Grid partitioning                          :        0.049 s           0.051 s
  | Preloading free-atom quantities on grid    :        0.126 s           0.126 s
  | Free-atom superposition energy             :        0.022 s           0.022 s
  | K.-S. eigenvector reorthonormalization     :        0.000 s           0.000 s
------------------------------------------------------------
Convergence:    q app. |  density  | eigen (eV) | Etot (eV) | forces (eV/A) |       CPU time |     Clock time
  SCF    1 :  0.10E-01 |  0.17E+00 |  -0.18E+05 | -0.31E+05 |             . |        0.718 s |        0.718 s
  SCF    2 :  0.10E-01 |  0.27E-02 |   0.11E-01 |  0.35E-03 |             . |        0.718 s |        0.719 s
  SCF    3 :  0.10E-01 |  0.14E-02 |   0.12E-01 |  0.65E-04 |             . |        1.068 s |        1.069 s
  SCF    4 :  0.10E-01 |  0.73E-03 |   0.16E-01 |  0.17E-04 |             . |        0.813 s |        0.813 s
  SCF    5 :  0.10E-01 |  0.20E-03 |   0.64E-02 | -0.12E-05 |             . |        0.815 s |        0.816 s
  SCF    6 :  0.10E-01 |  0.30E-04 |   0.39E-03 | -0.41E-06 |             . |        0.880 s |        0.880 s
  SCF    7 :  0.10E-01 |  0.10E-04 |   0.52E-05 | -0.42E-07 |             . |        0.892 s |        0.892 s
  SCF    8 :  0.10E-01 |  0.43E-05 |  -0.18E-03 |  0.58E-07 |             . |        0.846 s |        0.847 s
  SCF    9 :  0.10E-01 |  0.18E-05 |  -0.15E-03 |  0.56E-07 |             . |        0.792 s |        0.792 s
  SCF   10 :  0.10E-01 |  0.23E-06 |  -0.11E-04 |  0.39E-08 |             . |        0.821 s |        0.821 s
  SCF   11 :  0.10E-01 |  0.39E-07 |   0.15E-06 | -0.37E-09 |             . |        0.813 s |        0.812 s
  SCF   12 :  0.10E-01 |  0.82E-08 |   0.50E-07 | -0.19E-10 |      0.41E+01 |        4.499 s |        4.507 s

  Total energy components:
  | Sum of eigenvalues            :        -654.74062225 Ha      -17816.39881993 eV
  | XC energy correction          :         -79.44434984 Ha       -2161.79074990 eV
  | XC potential correction       :         104.95822649 Ha        2856.05865737 eV
  | Free-atom electrostatic energy:        -526.62690576 Ha      -14330.24722057 eV
  | Hartree energy correction     :          -1.51729686 Ha         -41.28774839 eV
  | Entropy correction            :          -0.00000000 Ha          -0.00000000 eV
  | ---------------------------
  | Total energy                  :       -1157.37094823 Ha      -31493.66588141 eV
  | Total energy, T -> 0          :       -1157.37094823 Ha      -31493.66588141 eV  <-- do not rely on this value for anything but (periodic) metals
  | Electronic free energy        :       -1157.37094823 Ha      -31493.66588141 eV

  Derived energy quantities:
  | Kinetic energy                :        1159.27623184 Ha       31545.51128630 eV
  | Electrostatic energy          :       -2237.20283023 Ha      -60877.38641781 eV
  | Energy correction for multipole
  | error in Hartree potential    :           0.03595870 Ha           0.97848599 eV
  | Sum of eigenvalues per atom                           :       -4454.09970498 eV
  | Total energy (T->0) per atom                          :       -7873.41647035 eV  <-- do not rely on this value for anything but (periodic) metals
  | Electronic free energy per atom                       :       -7873.41647035 eV
  What follows are estimated values for band gap, HOMO, LUMO, etc.
  | They are estimated on a discrete k-point grid and not necessarily exact.
  | For converged numbers, create a DOS and/or band structure plot on a denser k-grid.

  Highest occupied state (VBM) at     -5.66865436 eV (relative to internal zero)
  | Occupation number:      2.00000000
  | K-point:       1 at    0.000000    0.000000    0.000000 (in units of recip. lattice)

  Lowest unoccupied state (CBM) at    -5.14726168 eV (relative to internal zero)
  | Occupation number:      0.00000000
  | K-point:       6 at    0.500000    0.000000    0.500000 (in units of recip. lattice)

  ESTIMATED overall HOMO-LUMO gap:      0.52139268 eV between HOMO at k-point 1 and LUMO at k-point 6
  | This appears to be an indirect band gap.
  | Smallest direct gap :      1.34406062 eV for k_point 1 at    0.500000    0.000000    0.500000 (in units of recip. lattice)
  The gap value is above 0.2 eV. Unless you are using a very sparse k-point grid,
  this system is most likely an insulator or a semiconductor.

  Self-consistency cycle converged.

  Removing unitary transformations (pure translations, rotations) from forces on atoms.
  Atomic forces before filtering:
  | Net force on center of mass :   0.167797E-04 -0.547861E-04  0.167538E-04 eV/A
  Atomic forces after filtering:
  | Net force on center of mass :   0.000000E+00  0.557519E-17  0.111504E-16 eV/A

  Energy and forces in a compact form:
  | Total energy uncorrected      :         -0.314936658814089E+05 eV
  | Total energy corrected        :         -0.314936658814089E+05 eV  <-- do not rely on this value for anything but (periodic) metals
  | Electronic free energy        :         -0.314936658814089E+05 eV
  Total atomic forces (unitary forces cleaned) [eV/Ang]:
  |    1          0.660607352555353E-01          0.400770556758485E-01          0.660396739350295E-01
  |    2         -0.332197905031711E-01          0.414120773074620E-01         -0.332404741022147E-01
  |    3         -0.317621999438063E-01         -0.715876095557187E-01         -0.317419951048257E-01
  |    4         -0.107874480855804E-02         -0.990152342759181E-02         -0.105720472798911E-02

  Removing unitary transformations (pure translations, rotations) from forces on atoms.
  Atomic forces before filtering:
  | Net force on center of mass :   0.000000E+00  0.557519E-17  0.111504E-16 eV/A
  Atomic forces after filtering:
  | Net force on center of mass :   0.000000E+00 -0.836279E-17 -0.557519E-17 eV/A
 ------------------------------------------------------------------------
 Atomic structure that was used in the preceding time step of the wrapper
                         x [A]             y [A]             z [A]
  lattice_vector         0.00000000        2.72000000        2.72000000
  lattice_vector         5.43999999        0.00000000        5.43999999
  lattice_vector         2.72000000        2.72000000        0.00000000

            atom        -0.00707107       -0.00000000       -0.00707107  Si
            atom         2.72000000        0.00000000        2.72000000  Si
            atom         1.36000000        1.36000000        1.36000000  Si
            atom        -1.36000000        1.36000000       -1.36000000  Si
 ------------------------------------------------------------------------
  @ DRIVER MODE: Message from server: STATUS      
  @ DRIVER MODE: Message from server: GETFORCE    
  @ DRIVER MODE: Returning v,forces,stress 

------------------------------------------------------------------------------
  Final output of selected total energy values:

  The following output summarizes some interesting total energy values
  at the end of a run (AFTER all relaxation, molecular dynamics, etc.).

  | Total energy of the DFT / Hartree-Fock s.c.f. calculation      :         -31493.665881409 eV
  | Final zero-broadening corrected energy (caution - metals only) :         -31493.665881409 eV
  | For reference only, the value of 1 Hartree used in FHI-aims is :             27.211384500 eV
  | For reference only, the overall average (free atom contribution
  | + realspace contribution) of the electrostatic potential after
  | s.c.f. convergence is                                          :            -12.679748787 eV

  Before relying on these values, please be sure to understand exactly which
  total energy value is referred to by a given number. Different objects may
  all carry the same name 'total energy'. Definitions:

  Total energy of the DFT / Hartree-Fock s.c.f. calculation:
  | Note that this energy does not include ANY quantities calculated after the
  | s.c.f. cycle, in particular not ANY RPA, MP2, etc. many-body perturbation terms.

  Final zero-broadening corrected energy:
  | For metallic systems only, a broadening of the occupation numbers at the Fermi
  | level can be extrapolated back to zero broadening by an electron-gas inspired
  | formula. For all systems that are not real metals, this value can be
  | meaningless and should be avoided.

------------------------------------------------------------------------------
  Methods described in the following list of references were used in this FHI-aims run.
  If you publish the results, please make sure to cite these reference if they apply.
  FHI-aims is an academic code, and for our developers (often, Ph.D. students
  and postdocs), scientific credit in the community is essential.
  Thank you for helping us!

  For any use of FHI-aims, please cite:

    Volker Blum, Ralf Gehrke, Felix Hanke, Paula Havu, Ville Havu,
    Xinguo Ren, Karsten Reuter, and Matthias Scheffler
    'Ab initio molecular simulations with numeric atom-centered orbitals'
    Computer Physics Communications 180, 2175-2196 (2009)
    http://dx.doi.org/10.1016/j.cpc.2009.06.022


  The provided symmetry information was generated with SPGlib:

    Atsushi Togo, Yusuke Seto, Dimitar Pashov
    SPGlib 1.7.3 obtained from http://spglib.sourceforge.net
    Copyright (C) 2008 Atsushi Togo


  The ELSI infrastructure was used in your run to solve the Kohn-Sham electronic structure.
  Please check out http://elsi-interchange.org to learn more.
  If scalability is important for your project, please acknowledge ELSI by citing:

    V. W-z. Yu, F. Corsetti, A. Garcia, W. P. Huhn, M. Jacquelin, W. Jia,
    B. Lange, L. Lin, J. Lu, W. Mi, A. Seifitokaldani, A. Vazquez-Mayagoitia,
    C. Yang, H. Yang, and V. Blum
    'ELSI: A unified software interface for Kohn-Sham electronic structure solvers'
    Computer Physics Communications 222, 267-285 (2018).
    http://dx.doi.org/10.1016/j.cpc.2017.09.007


  For the real-space grid partitioning and parallelization used in this calculation, please cite:

    Ville Havu, Volker Blum, Paula Havu, and Matthias Scheffler,
    'Efficient O(N) integration for all-electron electronic structure calculation'
    'using numerically tabulated basis functions'
    Journal of Computational Physics 228, 8367-8379 (2009).
    http://dx.doi.org/10.1016/j.jcp.2009.08.008

  Of course, there are many other important community references, e.g., those cited in the
  above references. Our list is limited to references that describe implementations in the
  FHI-aims code. The reason is purely practical (length of this list) - please credit others as well.

------------------------------------------------------------
          Leaving FHI-aims.
          Date     :  20191009, Time     :  155942.175

          Computational steps:
          | Number of self-consistency cycles          :           32
          | Number of SCF (re)initializations          :            2

          Detailed time accounting                     :  max(cpu_time)    wall_clock(cpu1)
          | Total time                                 :       32.970 s          33.158 s
          | Preparation time                           :        0.131 s           0.134 s
          | Boundary condition initalization           :        0.144 s           0.145 s
          | Grid partitioning                          :        0.083 s           0.091 s
          | Preloading free-atom quantities on grid    :        0.129 s           0.130 s
          | Free-atom superposition energy             :        0.065 s           0.064 s
          | Total time for integrations                :        7.645 s           7.652 s
          | Total time for solution of K.-S. equations :        0.116 s           0.129 s
          | Total time for density & force components  :       10.977 s          11.024 s
          | Total time for mixing & preconditioning    :        1.265 s           1.265 s
          | Total time for Hartree multipole update    :        0.042 s           0.047 s
          | Total time for Hartree multipole sum       :       11.792 s          11.791 s
          | Total time for total energy evaluation     :        0.002 s           0.006 s
          | Total time for scaled ZORA corrections     :        0.000 s           0.000 s

          Partial memory accounting:
          | Residual value for overall tracked memory usage across tasks:     0.000000 MB (should be 0.000000 MB)
          | Peak values for overall tracked memory usage:
          |   Minimum:        8.568 MB (on task 0 after allocating d_wave)
          |   Maximum:        8.711 MB (on task 1 after allocating d_wave)
          |   Average:        8.665 MB
          | Largest tracked array allocation:
          |   Minimum:        1.671 MB (density_matrix_con on task 0)
          |   Maximum:        1.721 MB (density_matrix_con on task 3)
          |   Average:        1.703 MB
          Note:  These values currently only include a subset of arrays which are explicitly tracked.
          The "true" memory usage will be greater.

          Have a nice day.
------------------------------------------------------------
