  20   40
1 1
     3.063437357307849     0.000000000000000     0.000000000000000
    -0.000000000000000    11.565363456899499    -0.000000000000000
     0.000000000000001     0.000000000000000     3.063402083013681
1 2
    -0.163117267169227    -0.000000000000000    -0.000000000000000
     0.000000000000000     0.086922856292026     0.000000000000000
    -0.000000000000000     0.000000000000000    -0.163110920146454
1 3
    -0.068609165954362    -0.000000000000000     0.114539826214693
    -0.000000000000000    -0.272512912125826     0.000000000000000
     0.114538101347157    -0.000000000000000    -0.068609887444254
1 4
    -0.068609165954362     0.000000000000000    -0.114539826214693
     0.000000000000000    -0.272512912125827    -0.000000000000000
    -0.114538101347157    -0.000000000000000    -0.068609887444254
1 5
    -0.047375077166638    -0.000000000000000     0.000000000000000
    -0.000000000000000    -0.081116668937045     0.000000000000000
    -0.000000000000000    -0.000000000000000    -0.047377304810250
1 6
     0.163713987613858     0.000000000000000    -0.000000000000000
    -0.000000000000000    -0.568255494861343    -0.000000000000000
     0.000000000000000    -0.000000000000000     0.163719358151358
1 7
    -0.089163679011298    -0.000000000000000     0.217678352917099
     0.000000000000000     0.242303012472061    -0.000000000000000
     0.217675648218653     0.000000000000000    -0.089165464233021
1 8
    -0.089163679011298    -0.000000000000000    -0.217678352917099
    -0.000000000000000     0.242303012472061     0.000000000000000
    -0.217675648218653     0.000000000000000    -0.089165464233021
1 9
    -0.069466530077584     0.030883376688584     0.072469494191470
     0.057674965616756     0.006228192707742     0.057675476899637
     0.072472378938169     0.030886929443017    -0.069467316419967
1 10
    -0.130677417140681    -0.445517818850485    -0.375577349018043
    -0.566483530647980    -0.503128931629898    -0.566510774633991
    -0.375576339952684    -0.445537306753637    -0.130709627433880
1 11
    -0.130650656611933    -0.445507848663261     0.375510975184232
    -0.566465870536572    -0.503187165955895     0.566446931946600
     0.375508472943696     0.445490365716373    -0.130623258129087
1 12
    -0.069463793811366     0.030876578987025    -0.072463585458460
     0.057676628803380     0.006213460749016    -0.057675032192036
    -0.072457622296554    -0.030873766693095    -0.069462174717341
1 13
    -0.069463793811366     0.030876578987025     0.072463585458460
     0.057676628803380     0.006213460749016     0.057675032192036
     0.072457622296554     0.030873766693095    -0.069462174717341
1 14
    -0.130650656611933    -0.445507848663261    -0.375510975184232
    -0.566465870536572    -0.503187165955895    -0.566446931946600
    -0.375508472943696    -0.445490365716373    -0.130623258129087
1 15
    -0.130677417140681    -0.445517818850485     0.375577349018043
    -0.566483530647980    -0.503128931629898     0.566510774633991
     0.375576339952684     0.445537306753636    -0.130709627433879
1 16
    -0.069466530077584     0.030883376688584    -0.072469494191470
     0.057674965616756     0.006228192707742    -0.057675476899637
    -0.072472378938169    -0.030886929443017    -0.069467316419967
1 17
    -0.069463793811366    -0.030876578987025     0.072463585458460
    -0.057676628803380     0.006213460749016    -0.057675032192036
     0.072457622296554    -0.030873766693095    -0.069462174717341
1 18
    -0.130650656611933     0.445507848663261    -0.375510975184232
     0.566465870536572    -0.503187165955895     0.566446931946600
    -0.375508472943696     0.445490365716373    -0.130623258129087
1 19
    -0.130677417140681     0.445517818850485     0.375577349018043
     0.566483530647980    -0.503128931629898    -0.566510774633991
     0.375576339952684    -0.445537306753636    -0.130709627433879
1 20
    -0.069466530077584    -0.030883376688584    -0.072469494191470
    -0.057674965616756     0.006228192707742     0.057675476899637
    -0.072472378938169     0.030886929443017    -0.069467316419967
1 21
    -0.069466530077584    -0.030883376688584     0.072469494191470
    -0.057674965616756     0.006228192707742    -0.057675476899637
     0.072472378938169    -0.030886929443017    -0.069467316419967
1 22
    -0.130677417140681     0.445517818850485    -0.375577349018043
     0.566483530647980    -0.503128931629898     0.566510774633991
    -0.375576339952684     0.445537306753637    -0.130709627433880
1 23
    -0.130650656611933     0.445507848663261     0.375510975184232
     0.566465870536572    -0.503187165955895    -0.566446931946600
     0.375508472943696    -0.445490365716373    -0.130623258129087
1 24
    -0.069463793811366    -0.030876578987025    -0.072463585458460
    -0.057676628803380     0.006213460749016     0.057675032192036
    -0.072457622296554     0.030873766693095    -0.069462174717341
1 25
     0.047913622379774    -0.000000000000000    -0.000005756116737
    -0.000000000000000    -0.341641649674708    -0.000000000000000
    -0.000019612739293     0.000000000000000    -0.162982577961843
1 26
     0.047913622379774    -0.000000000000000     0.000005756116737
    -0.000000000000000    -0.341641649674708    -0.000000000000000
     0.000019612739293     0.000000000000000    -0.162982577961843
1 27
    -0.060147591962691     0.000000000000000     0.000000000000000
     0.000000000000000     0.240095795513242     0.000000000000000
    -0.000000000000000    -0.000000000000000     0.060120261909488
1 28
    -0.060149500645165    -0.000000000000000     0.000000000000000
    -0.000000000000000     0.240078510233327     0.000000000000000
    -0.000000000000000    -0.000000000000000     0.060142344793972
1 29
     0.060123081279579    -0.000000000000000    -0.000001412602314
    -0.000000000000000     0.240084542538839     0.000000000000000
     0.000004239125278    -0.000000000000000    -0.060148837412107
1 30
     0.060123081279579    -0.000000000000000     0.000001412602314
     0.000000000000000     0.240084542538839    -0.000000000000000
    -0.000004239125278    -0.000000000000000    -0.060148837412107
1 31
    -0.162972667020471    -0.000000000000000     0.000000000000000
     0.000000000000000    -0.341630244836015    -0.000000000000000
    -0.000000000000000     0.000000000000000     0.047821851928263
1 32
    -0.162981848725305    -0.000000000000000    -0.000000000000000
     0.000000000000000    -0.341636236344096     0.000000000000000
    -0.000000000000000     0.000000000000000     0.048039717290899
1 33
     0.140084602646376    -0.000000000000000     0.000000000000000
     0.000000000000000     0.002887719554921     0.000000015307728
     0.000000000000000     0.000002892529551     0.140079650956497
1 34
    -0.971695695425649    -0.000000000000000     0.000000000000000
    -0.000000000000000    -3.262627100029545     0.000070948671709
    -0.000000000000000     0.000050659480873    -0.971699398676886
1 35
     0.198330166626302     0.000013467802519    -0.334349613740885
    -0.000004318519860    -0.010327855728742     0.000005112203993
    -0.334346388866180     0.000026306152061     0.198336286053343
1 36
     0.198330166626302    -0.000013467802519     0.334349613740885
     0.000004318519860    -0.010327855728742     0.000005112203993
     0.334346388866180     0.000026306152061     0.198336286053343
1 37
     0.140084602646376    -0.000000000000000    -0.000000000000000
     0.000000000000000     0.002887719554921    -0.000000015307728
     0.000000000000000    -0.000002892529551     0.140079650956497
1 38
    -0.971695695425649    -0.000000000000000    -0.000000000000000
     0.000000000000000    -3.262627100029545    -0.000070948671709
    -0.000000000000000    -0.000050659480873    -0.971699398676886
1 39
     0.198330166626302    -0.000013467802519    -0.334349613740885
     0.000004318519860    -0.010327855728742    -0.000005112203993
    -0.334346388866180    -0.000026306152061     0.198336286053343
1 40
     0.198330166626302     0.000013467802519     0.334349613740885
    -0.000004318519860    -0.010327855728742    -0.000005112203993
     0.334346388866180    -0.000026306152061     0.198336286053343
3 1
    -0.068609165954362     0.000000000000000     0.114539826214693
     0.000000000000000    -0.272512912125827     0.000000000000000
     0.114538101347157     0.000000000000000    -0.068609887444254
3 2
    -0.068609165954362    -0.000000000000000    -0.114539826214693
    -0.000000000000000    -0.272512912125826    -0.000000000000000
    -0.114538101347157     0.000000000000000    -0.068609887444254
3 3
     3.063437357307849     0.000000000000000     0.000000000000000
    -0.000000000000000    11.565363456899499     0.000000000000000
    -0.000000000000000    -0.000000000000000     3.063402083013680
3 4
    -0.163117267169227    -0.000000000000000    -0.000000000000000
     0.000000000000000     0.086922856292026    -0.000000000000000
     0.000000000000000    -0.000000000000000    -0.163110920146454
3 5
    -0.089163679011298    -0.000000000000000    -0.217678352917099
     0.000000000000000     0.242303012472061     0.000000000000000
    -0.217675648218653    -0.000000000000000    -0.089165464233021
3 6
    -0.089163679011298    -0.000000000000000     0.217678352917099
    -0.000000000000000     0.242303012472061    -0.000000000000000
     0.217675648218653    -0.000000000000000    -0.089165464233021
3 7
     0.163713987613858     0.000000000000000     0.000000000000000
    -0.000000000000000    -0.568255494861343     0.000000000000000
    -0.000000000000000     0.000000000000000     0.163719358151358
3 8
    -0.047375077166638    -0.000000000000000    -0.000000000000000
    -0.000000000000000    -0.081116668937045    -0.000000000000000
     0.000000000000000     0.000000000000000    -0.047377304810250
3 9
    -0.130650656611933    -0.445507848663261    -0.375510975184232
    -0.566465870536572    -0.503187165955895    -0.566446931946600
    -0.375508472943695    -0.445490365716373    -0.130623258129087
3 10
    -0.069463793811366     0.030876578987025     0.072463585458460
     0.057676628803380     0.006213460749016     0.057675032192036
     0.072457622296554     0.030873766693095    -0.069462174717341
3 11
    -0.130677417140681    -0.445517818850485     0.375577349018043
    -0.566483530647980    -0.503128931629898     0.566510774633991
     0.375576339952684     0.445537306753637    -0.130709627433880
3 12
    -0.069466530077584     0.030883376688584    -0.072469494191470
     0.057674965616756     0.006228192707742    -0.057675476899637
    -0.072472378938169    -0.030886929443017    -0.069467316419967
3 13
    -0.130677417140681    -0.445517818850485    -0.375577349018043
    -0.566483530647980    -0.503128931629898    -0.566510774633991
    -0.375576339952684    -0.445537306753636    -0.130709627433879
3 14
    -0.069466530077584     0.030883376688584     0.072469494191470
     0.057674965616756     0.006228192707742     0.057675476899637
     0.072472378938169     0.030886929443017    -0.069467316419967
3 15
    -0.130650656611933    -0.445507848663261     0.375510975184232
    -0.566465870536572    -0.503187165955895     0.566446931946600
     0.375508472943696     0.445490365716373    -0.130623258129087
3 16
    -0.069463793811366     0.030876578987025    -0.072463585458460
     0.057676628803380     0.006213460749016    -0.057675032192036
    -0.072457622296554    -0.030873766693095    -0.069462174717341
3 17
    -0.130677417140681     0.445517818850485    -0.375577349018043
     0.566483530647980    -0.503128931629898     0.566510774633991
    -0.375576339952684     0.445537306753636    -0.130709627433879
3 18
    -0.069466530077584    -0.030883376688584     0.072469494191470
    -0.057674965616756     0.006228192707742    -0.057675476899637
     0.072472378938169    -0.030886929443017    -0.069467316419967
3 19
    -0.130650656611933     0.445507848663261     0.375510975184232
     0.566465870536572    -0.503187165955895    -0.566446931946600
     0.375508472943696    -0.445490365716373    -0.130623258129087
3 20
    -0.069463793811366    -0.030876578987025    -0.072463585458460
    -0.057676628803380     0.006213460749016     0.057675032192036
    -0.072457622296554     0.030873766693095    -0.069462174717341
3 21
    -0.130650656611933     0.445507848663261    -0.375510975184232
     0.566465870536572    -0.503187165955895     0.566446931946600
    -0.375508472943695     0.445490365716373    -0.130623258129087
3 22
    -0.069463793811366    -0.030876578987025     0.072463585458460
    -0.057676628803380     0.006213460749016    -0.057675032192036
     0.072457622296554    -0.030873766693095    -0.069462174717341
3 23
    -0.130677417140681     0.445517818850485     0.375577349018043
     0.566483530647980    -0.503128931629898    -0.566510774633991
     0.375576339952684    -0.445537306753637    -0.130709627433880
3 24
    -0.069466530077584    -0.030883376688584    -0.072469494191470
    -0.057674965616756     0.006228192707742     0.057675476899637
    -0.072472378938169     0.030886929443017    -0.069467316419967
3 25
    -0.060147591962691     0.000000000000000    -0.000000000000000
     0.000000000000000     0.240095795513242    -0.000000000000000
     0.000000000000000     0.000000000000000     0.060120261909488
3 26
    -0.060149500645165    -0.000000000000000    -0.000000000000000
    -0.000000000000000     0.240078510233327    -0.000000000000000
     0.000000000000000     0.000000000000000     0.060142344793972
3 27
     0.047913622379774    -0.000000000000000    -0.000005756116737
    -0.000000000000000    -0.341641649674708     0.000000000000000
    -0.000019612739293    -0.000000000000000    -0.162982577961843
3 28
     0.047913622379774    -0.000000000000000     0.000005756116737
    -0.000000000000000    -0.341641649674708     0.000000000000000
     0.000019612739293    -0.000000000000000    -0.162982577961843
3 29
    -0.162981848725305    -0.000000000000000    -0.000000000000000
     0.000000000000000    -0.341636236344096    -0.000000000000000
     0.000000000000000    -0.000000000000000     0.048039717290899
3 30
    -0.162972667020471    -0.000000000000000    -0.000000000000000
     0.000000000000000    -0.341630244836015     0.000000000000000
     0.000000000000000    -0.000000000000000     0.047821851928263
3 31
     0.060123081279579    -0.000000000000000     0.000001412602314
    -0.000000000000000     0.240084542538839    -0.000000000000000
    -0.000004239125278     0.000000000000000    -0.060148837412107
3 32
     0.060123081279579    -0.000000000000000    -0.000001412602314
     0.000000000000000     0.240084542538839     0.000000000000000
     0.000004239125278     0.000000000000000    -0.060148837412107
3 33
     0.198330166626302     0.000013467802519     0.334349613740885
    -0.000004318519860    -0.010327855728742    -0.000005112203993
     0.334346388866180    -0.000026306152061     0.198336286053343
3 34
     0.198330166626302    -0.000013467802519    -0.334349613740885
     0.000004318519860    -0.010327855728742    -0.000005112203993
    -0.334346388866180    -0.000026306152061     0.198336286053343
3 35
    -0.971695695425649    -0.000000000000000    -0.000000000000000
    -0.000000000000000    -3.262627100029545    -0.000070948671709
     0.000000000000000    -0.000050659480873    -0.971699398676886
3 36
     0.140084602646376    -0.000000000000000     0.000000000000000
     0.000000000000000     0.002887719554921    -0.000000015307728
    -0.000000000000000    -0.000002892529551     0.140079650956497
3 37
     0.198330166626302    -0.000013467802519     0.334349613740885
     0.000004318519860    -0.010327855728742     0.000005112203993
     0.334346388866180     0.000026306152061     0.198336286053343
3 38
     0.198330166626302     0.000013467802519    -0.334349613740885
    -0.000004318519860    -0.010327855728742     0.000005112203993
    -0.334346388866180     0.000026306152061     0.198336286053343
3 39
    -0.971695695425649    -0.000000000000000    -0.000000000000000
     0.000000000000000    -3.262627100029545     0.000070948671709
     0.000000000000000     0.000050659480873    -0.971699398676886
3 40
     0.140084602646376    -0.000000000000000     0.000000000000000
     0.000000000000000     0.002887719554921     0.000000015307728
    -0.000000000000000     0.000002892529551     0.140079650956497
5 1
    -0.047375077166638    -0.000000000000000     0.000000000000000
    -0.000000000000000    -0.081116668937045     0.000000000000000
    -0.000000000000000    -0.000000000000000    -0.047377304810250
5 2
     0.163713987613858     0.000000000000000    -0.000000000000000
    -0.000000000000000    -0.568255494861343    -0.000000000000000
     0.000000000000000    -0.000000000000000     0.163719358151358
5 3
    -0.089163679011298    -0.000000000000000    -0.217678352917099
    -0.000000000000000     0.242303012472061     0.000000000000000
    -0.217675648218653     0.000000000000000    -0.089165464233021
5 4
    -0.089163679011298    -0.000000000000000     0.217678352917099
     0.000000000000000     0.242303012472061    -0.000000000000000
     0.217675648218653     0.000000000000000    -0.089165464233021
5 5
     3.063437357307849     0.000000000000000    -0.000000000000000
    -0.000000000000000    11.565363456899499    -0.000000000000000
     0.000000000000000     0.000000000000000     3.063402083013680
5 6
    -0.163117267169227    -0.000000000000000     0.000000000000000
     0.000000000000000     0.086922856292026     0.000000000000000
    -0.000000000000000     0.000000000000000    -0.163110920146454
5 7
    -0.068609165954362     0.000000000000000    -0.114539826214693
     0.000000000000000    -0.272512912125827    -0.000000000000000
    -0.114538101347157    -0.000000000000000    -0.068609887444254
5 8
    -0.068609165954362    -0.000000000000000     0.114539826214693
    -0.000000000000000    -0.272512912125826     0.000000000000000
     0.114538101347157    -0.000000000000000    -0.068609887444254
5 9
    -0.130650656611933     0.445507848663261    -0.375510975184232
     0.566465870536572    -0.503187165955895     0.566446931946600
    -0.375508472943696     0.445490365716373    -0.130623258129087
5 10
    -0.069463793811366    -0.030876578987025     0.072463585458460
    -0.057676628803380     0.006213460749016    -0.057675032192036
     0.072457622296554    -0.030873766693095    -0.069462174717341
5 11
    -0.069466530077584    -0.030883376688584    -0.072469494191470
    -0.057674965616756     0.006228192707742     0.057675476899637
    -0.072472378938169     0.030886929443017    -0.069467316419967
5 12
    -0.130677417140681     0.445517818850485     0.375577349018043
     0.566483530647980    -0.503128931629898    -0.566510774633991
     0.375576339952684    -0.445537306753636    -0.130709627433879
5 13
    -0.130677417140681     0.445517818850485    -0.375577349018043
     0.566483530647980    -0.503128931629898     0.566510774633991
    -0.375576339952684     0.445537306753637    -0.130709627433880
5 14
    -0.069466530077584    -0.030883376688584     0.072469494191470
    -0.057674965616756     0.006228192707742    -0.057675476899637
     0.072472378938169    -0.030886929443017    -0.069467316419967
5 15
    -0.069463793811366    -0.030876578987025    -0.072463585458460
    -0.057676628803380     0.006213460749016     0.057675032192036
    -0.072457622296554     0.030873766693095    -0.069462174717341
5 16
    -0.130650656611933     0.445507848663261     0.375510975184232
     0.566465870536572    -0.503187165955895    -0.566446931946600
     0.375508472943695    -0.445490365716373    -0.130623258129087
5 17
    -0.130677417140681    -0.445517818850485    -0.375577349018043
    -0.566483530647980    -0.503128931629898    -0.566510774633991
    -0.375576339952684    -0.445537306753637    -0.130709627433880
5 18
    -0.069466530077584     0.030883376688584     0.072469494191470
     0.057674965616756     0.006228192707742     0.057675476899637
     0.072472378938169     0.030886929443017    -0.069467316419967
5 19
    -0.069463793811366     0.030876578987025    -0.072463585458460
     0.057676628803380     0.006213460749016    -0.057675032192036
    -0.072457622296554    -0.030873766693095    -0.069462174717341
5 20
    -0.130650656611933    -0.445507848663261     0.375510975184232
    -0.566465870536572    -0.503187165955895     0.566446931946600
     0.375508472943695     0.445490365716373    -0.130623258129087
5 21
    -0.130650656611933    -0.445507848663261    -0.375510975184232
    -0.566465870536572    -0.503187165955895    -0.566446931946600
    -0.375508472943696    -0.445490365716373    -0.130623258129087
5 22
    -0.069463793811366     0.030876578987025     0.072463585458460
     0.057676628803380     0.006213460749016     0.057675032192036
     0.072457622296554     0.030873766693095    -0.069462174717341
5 23
    -0.069466530077584     0.030883376688584    -0.072469494191470
     0.057674965616756     0.006228192707742    -0.057675476899637
    -0.072472378938169    -0.030886929443017    -0.069467316419967
5 24
    -0.130677417140681    -0.445517818850485     0.375577349018043
    -0.566483530647980    -0.503128931629898     0.566510774633991
     0.375576339952684     0.445537306753636    -0.130709627433879
5 25
     0.060123081279579    -0.000000000000000     0.000001412602314
     0.000000000000000     0.240084542538839    -0.000000000000000
    -0.000004239125278    -0.000000000000000    -0.060148837412107
5 26
     0.060123081279579    -0.000000000000000    -0.000001412602314
    -0.000000000000000     0.240084542538839     0.000000000000000
     0.000004239125278    -0.000000000000000    -0.060148837412107
5 27
    -0.162972667020471    -0.000000000000000     0.000000000000000
     0.000000000000000    -0.341630244836015    -0.000000000000000
    -0.000000000000000     0.000000000000000     0.047821851928263
5 28
    -0.162981848725305    -0.000000000000000     0.000000000000000
     0.000000000000000    -0.341636236344096     0.000000000000000
    -0.000000000000000     0.000000000000000     0.048039717290899
5 29
     0.047913622379774    -0.000000000000000     0.000005756116737
    -0.000000000000000    -0.341641649674708    -0.000000000000000
     0.000019612739293     0.000000000000000    -0.162982577961843
5 30
     0.047913622379774    -0.000000000000000    -0.000005756116737
    -0.000000000000000    -0.341641649674708    -0.000000000000000
    -0.000019612739293     0.000000000000000    -0.162982577961843
5 31
    -0.060147591962691     0.000000000000000     0.000000000000000
     0.000000000000000     0.240095795513242     0.000000000000000
    -0.000000000000000    -0.000000000000000     0.060120261909488
5 32
    -0.060149500645165    -0.000000000000000     0.000000000000000
    -0.000000000000000     0.240078510233327     0.000000000000000
    -0.000000000000000    -0.000000000000000     0.060142344793972
5 33
    -0.971695695425649    -0.000000000000000     0.000000000000000
    -0.000000000000000    -3.262627100029545     0.000070948671709
    -0.000000000000000     0.000050659480873    -0.971699398676886
5 34
     0.140084602646376    -0.000000000000000    -0.000000000000000
     0.000000000000000     0.002887719554921     0.000000015307728
     0.000000000000000     0.000002892529551     0.140079650956497
5 35
     0.198330166626302    -0.000013467802519     0.334349613740885
     0.000004318519860    -0.010327855728742     0.000005112203993
     0.334346388866180     0.000026306152061     0.198336286053343
5 36
     0.198330166626302     0.000013467802519    -0.334349613740885
    -0.000004318519860    -0.010327855728742     0.000005112203993
    -0.334346388866180     0.000026306152061     0.198336286053343
5 37
    -0.971695695425649    -0.000000000000000     0.000000000000000
     0.000000000000000    -3.262627100029545    -0.000070948671709
    -0.000000000000000    -0.000050659480873    -0.971699398676886
5 38
     0.140084602646376    -0.000000000000000    -0.000000000000000
     0.000000000000000     0.002887719554921    -0.000000015307728
     0.000000000000000    -0.000002892529551     0.140079650956497
5 39
     0.198330166626302     0.000013467802519     0.334349613740885
    -0.000004318519860    -0.010327855728742    -0.000005112203993
     0.334346388866180    -0.000026306152061     0.198336286053343
5 40
     0.198330166626302    -0.000013467802519    -0.334349613740885
     0.000004318519860    -0.010327855728742    -0.000005112203993
    -0.334346388866180    -0.000026306152061     0.198336286053343
7 1
    -0.089163679011298    -0.000000000000000     0.217678352917099
    -0.000000000000000     0.242303012472061    -0.000000000000000
     0.217675648218653    -0.000000000000000    -0.089165464233021
7 2
    -0.089163679011298    -0.000000000000000    -0.217678352917099
     0.000000000000000     0.242303012472061     0.000000000000000
    -0.217675648218653    -0.000000000000000    -0.089165464233021
7 3
     0.163713987613858     0.000000000000000     0.000000000000000
    -0.000000000000000    -0.568255494861343     0.000000000000000
    -0.000000000000000     0.000000000000000     0.163719358151358
7 4
    -0.047375077166638    -0.000000000000000    -0.000000000000000
    -0.000000000000000    -0.081116668937045    -0.000000000000000
     0.000000000000000     0.000000000000000    -0.047377304810250
7 5
    -0.068609165954362    -0.000000000000000    -0.114539826214693
    -0.000000000000000    -0.272512912125826    -0.000000000000000
    -0.114538101347157     0.000000000000000    -0.068609887444254
7 6
    -0.068609165954362     0.000000000000000     0.114539826214693
     0.000000000000000    -0.272512912125827     0.000000000000000
     0.114538101347157     0.000000000000000    -0.068609887444254
7 7
     3.063437357307849     0.000000000000000     0.000000000000000
    -0.000000000000000    11.565363456899499     0.000000000000000
    -0.000000000000000    -0.000000000000000     3.063402083013680
7 8
    -0.163117267169227    -0.000000000000000    -0.000000000000000
     0.000000000000000     0.086922856292026    -0.000000000000000
     0.000000000000000    -0.000000000000000    -0.163110920146454
7 9
    -0.130677417140681     0.445517818850485    -0.375577349018043
     0.566483530647980    -0.503128931629898     0.566510774633991
    -0.375576339952684     0.445537306753636    -0.130709627433879
7 10
    -0.069466530077584    -0.030883376688584     0.072469494191470
    -0.057674965616756     0.006228192707742    -0.057675476899637
     0.072472378938169    -0.030886929443017    -0.069467316419967
7 11
    -0.130650656611933     0.445507848663261     0.375510975184232
     0.566465870536572    -0.503187165955895    -0.566446931946600
     0.375508472943696    -0.445490365716373    -0.130623258129087
7 12
    -0.069463793811366    -0.030876578987025    -0.072463585458460
    -0.057676628803380     0.006213460749016     0.057675032192036
    -0.072457622296554     0.030873766693095    -0.069462174717341
7 13
    -0.130650656611933     0.445507848663261    -0.375510975184232
     0.566465870536572    -0.503187165955895     0.566446931946600
    -0.375508472943695     0.445490365716373    -0.130623258129087
7 14
    -0.069463793811366    -0.030876578987025     0.072463585458460
    -0.057676628803380     0.006213460749016    -0.057675032192036
     0.072457622296554    -0.030873766693095    -0.069462174717341
7 15
    -0.130677417140681     0.445517818850485     0.375577349018043
     0.566483530647980    -0.503128931629898    -0.566510774633991
     0.375576339952684    -0.445537306753637    -0.130709627433880
7 16
    -0.069466530077584    -0.030883376688584    -0.072469494191470
    -0.057674965616756     0.006228192707742     0.057675476899637
    -0.072472378938169     0.030886929443017    -0.069467316419967
7 17
    -0.130650656611933    -0.445507848663261    -0.375510975184232
    -0.566465870536572    -0.503187165955895    -0.566446931946600
    -0.375508472943695    -0.445490365716373    -0.130623258129087
7 18
    -0.069463793811366     0.030876578987025     0.072463585458460
     0.057676628803380     0.006213460749016     0.057675032192036
     0.072457622296554     0.030873766693095    -0.069462174717341
7 19
    -0.130677417140681    -0.445517818850485     0.375577349018043
    -0.566483530647980    -0.503128931629898     0.566510774633991
     0.375576339952684     0.445537306753637    -0.130709627433880
7 20
    -0.069466530077584     0.030883376688584    -0.072469494191470
     0.057674965616756     0.006228192707742    -0.057675476899637
    -0.072472378938169    -0.030886929443017    -0.069467316419967
7 21
    -0.130677417140681    -0.445517818850485    -0.375577349018043
    -0.566483530647980    -0.503128931629898    -0.566510774633991
    -0.375576339952684    -0.445537306753636    -0.130709627433879
7 22
    -0.069466530077584     0.030883376688584     0.072469494191470
     0.057674965616756     0.006228192707742     0.057675476899637
     0.072472378938169     0.030886929443017    -0.069467316419967
7 23
    -0.130650656611933    -0.445507848663261     0.375510975184232
    -0.566465870536572    -0.503187165955895     0.566446931946600
     0.375508472943696     0.445490365716373    -0.130623258129087
7 24
    -0.069463793811366     0.030876578987025    -0.072463585458460
     0.057676628803380     0.006213460749016    -0.057675032192036
    -0.072457622296554    -0.030873766693095    -0.069462174717341
7 25
    -0.162981848725305    -0.000000000000000    -0.000000000000000
     0.000000000000000    -0.341636236344096    -0.000000000000000
     0.000000000000000    -0.000000000000000     0.048039717290899
7 26
    -0.162972667020471    -0.000000000000000    -0.000000000000000
     0.000000000000000    -0.341630244836015     0.000000000000000